/*--------------------------------*- C++ -*----------------------------------*\
| =========                 |                                                 |
| \\      /  F ield         | OpenFOAM: The Open Source CFD Toolbox           |
|  \\    /   O peration     | Version:  4.x                                   |
|   \\  /    A nd           | Web:      www.OpenFOAM.org                      |
|    \\/     M anipulation  |                                                 |
\*---------------------------------------------------------------------------*/
FoamFile
{
    version     2.0;
    format      ascii;
    class       volScalarField;
    location    "100";
    object      k;
}
// * * * * * * * * * * * * * * * * * * * * * * * * * * * * * * * * * * * * * //

dimensions      [0 2 -2 0 0 0 0];

internalField   nonuniform List<scalar> 
12225
(
0.546154
0.81911
0.988891
1.07643
1.10276
1.09687
1.08055
1.05098
1.01932
0.989202
0.961346
0.93598
0.914162
0.893894
0.878657
0.862542
0.854624
0.842024
0.383367
0.384697
0.398289
0.414258
0.428866
0.445597
0.46145
0.481571
0.500945
0.525707
0.542252
0.565141
0.579302
0.600288
0.611788
0.630651
0.638846
0.654817
0.373095
0.371209
0.369748
0.367969
0.364319
0.359284
0.354352
0.349427
0.345215
0.34204
0.339024
0.336993
0.334896
0.333738
0.332355
0.331776
0.330699
0.330038
0.373866
0.370466
0.368469
0.366204
0.363962
0.360583
0.357366
0.3533
0.349614
0.345376
0.34165
0.337526
0.333993
0.330083
0.326771
0.323183
0.320162
0.31695
0.374047
0.371072
0.368922
0.36669
0.364772
0.362328
0.360073
0.357322
0.354806
0.351885
0.349266
0.346271
0.343628
0.340693
0.338174
0.335381
0.333079
0.330493
0.373987
0.371444
0.369313
0.36716
0.365298
0.363242
0.361355
0.359248
0.357285
0.355127
0.353128
0.350959
0.348965
0.346824
0.344908
0.342847
0.341071
0.339124
0.373906
0.371569
0.369463
0.367386
0.365514
0.363626
0.36188
0.360079
0.358381
0.356622
0.354957
0.353235
0.351614
0.349938
0.348388
0.346781
0.345335
0.343805
0.373866
0.371586
0.369481
0.367439
0.365555
0.363719
0.362007
0.360316
0.358718
0.357124
0.355606
0.354086
0.352641
0.351189
0.349823
0.348443
0.347169
0.345858
0.373847
0.371582
0.369469
0.367441
0.365545
0.363726
0.362019
0.360371
0.358812
0.357295
0.355851
0.354437
0.353089
0.351762
0.350504
0.349257
0.34809
0.346913
0.373837
0.371574
0.369449
0.367424
0.365516
0.3637
0.361987
0.360351
0.358802
0.357317
0.355905
0.354545
0.353251
0.351997
0.350804
0.349642
0.348542
0.347459
0.373832
0.371567
0.369431
0.367403
0.365486
0.363665
0.361942
0.360304
0.358751
0.357272
0.355867
0.354525
0.353249
0.352026
0.350861
0.349741
0.348674
0.347643
0.373829
0.371561
0.369418
0.367385
0.36546
0.363633
0.361901
0.360257
0.358696
0.357212
0.355802
0.35446
0.353183
0.351966
0.350807
0.3497
0.348642
0.347631
0.373827
0.371557
0.369408
0.36737
0.36544
0.363607
0.361868
0.360217
0.358648
0.357157
0.35574
0.354392
0.353109
0.351888
0.350725
0.349616
0.348559
0.347549
0.373826
0.371554
0.369401
0.36736
0.365424
0.363586
0.361842
0.360185
0.358609
0.357113
0.355688
0.354334
0.353045
0.351818
0.350649
0.349535
0.348474
0.347461
0.373826
0.371551
0.369396
0.367351
0.365412
0.36357
0.361821
0.360159
0.358579
0.357077
0.355648
0.354288
0.352993
0.35176
0.350585
0.349467
0.348399
0.347383
0.373826
0.37155
0.369393
0.367346
0.365404
0.363558
0.361806
0.36014
0.358557
0.35705
0.355616
0.354251
0.352951
0.351713
0.350533
0.349409
0.348337
0.347315
0.373825
0.371549
0.369392
0.367343
0.365399
0.363551
0.361797
0.360127
0.35854
0.357029
0.355592
0.354222
0.352918
0.351675
0.35049
0.349361
0.348283
0.347256
0.373826
0.371548
0.369392
0.367341
0.365398
0.363548
0.361792
0.36012
0.358531
0.357017
0.355576
0.354203
0.352894
0.351647
0.350457
0.349323
0.34824
0.347209
0.373825
0.371551
0.369392
0.367344
0.365398
0.36355
0.361792
0.36012
0.358528
0.357013
0.355569
0.354193
0.352882
0.351631
0.350438
0.3493
0.348215
0.347178
0.373826
0.37155
0.369395
0.367345
0.365402
0.363552
0.361795
0.360122
0.358531
0.357015
0.35557
0.354193
0.352879
0.351627
0.350432
0.349292
0.348204
0.347166
0.373826
0.371552
0.369396
0.367349
0.365405
0.363557
0.361801
0.360128
0.358537
0.357021
0.355576
0.354199
0.352885
0.351632
0.350436
0.349295
0.348206
0.347165
0.373827
0.371554
0.3694
0.367354
0.365411
0.363565
0.361809
0.360139
0.358547
0.357032
0.355587
0.35421
0.352895
0.35164
0.350442
0.349298
0.348206
0.347161
0.373827
0.371558
0.369405
0.367363
0.365422
0.363577
0.361821
0.36015
0.358558
0.35704
0.35559
0.354207
0.352883
0.351618
0.350406
0.349248
0.348137
0.347075
0.373828
0.371563
0.369413
0.367376
0.365435
0.363588
0.361824
0.360144
0.358534
0.356995
0.355517
0.3541
0.352734
0.351424
0.350159
0.348946
0.347773
0.34665
0.373824
0.371564
0.369414
0.367389
0.365432
0.363564
0.361756
0.360024
0.358341
0.356722
0.355142
0.353616
0.352125
0.350686
0.349279
0.347925
0.3466
0.345332
0.373771
0.371505
0.369371
0.367364
0.36535
0.363403
0.361449
0.359562
0.357675
0.35584
0.354009
0.352227
0.350455
0.348738
0.347038
0.345402
0.343784
0.342243
0.373425
0.371286
0.369281
0.36734
0.365177
0.363038
0.360749
0.358497
0.356144
0.353843
0.351489
0.349197
0.346896
0.344671
0.34247
0.340358
0.338296
0.33633
0.372601
0.37101
0.369721
0.368162
0.365896
0.363522
0.360673
0.357835
0.354778
0.351852
0.34892
0.346156
0.34355
0.3411
0.338943
0.336895
0.335226
0.333521
0.374341
0.375727
0.378618
0.383365
0.387814
0.392468
0.396881
0.401518
0.406587
0.412075
0.418288
0.424747
0.432173
0.439483
0.447964
0.45589
0.464167
0.471387
0.442951
0.578706
0.685471
0.765578
0.822581
0.861853
0.886745
0.901995
0.911217
0.914857
0.913892
0.911196
0.905469
0.897944
0.889152
0.880433
0.87197
0.863755
0.000495957
0.00243157
0.0055859
0.0106334
0.0165132
0.02315
0.0305107
0.0367861
0.0423976
0.0471172
0.0497952
0.0588311
0.0664434
0.0734004
0.0827166
0.0915464
0.102349
0.114592
0.128779
0.144852
0.163309
0.183385
0.205372
0.228214
0.25247
0.276435
0.301382
0.325207
0.349498
0.372184
0.395569
0.417435
0.439707
0.461072
0.483203
0.504439
0.526287
0.547825
0.570086
0.591323
0.612339
0.631128
0.650313
0.669027
0.686179
0.701001
0.71412
0.72953
0.744359
0.746289
0.743654
0.748003
0.751228
0.739446
0.715584
0.69704
0.684322
0.667434
0.610007
0.529661
0.422485
0.321585
0.240557
0.181501
0.141049
0.112276
0.0899112
0.0706955
0.0555242
0.040885
0.0304405
0.0212653
0.0168058
0.014546
0.0144894
0.0169591
0.0282515
0.0436152
0.0659173
0.0727373
0.0597105
0.0564334
0.0589159
0.0898369
0.127465
0.227626
0.397095
0.49827
0.641587
0.680197
0.776956
0.802822
0.833956
0.855845
0.872432
0.881644
0.889646
0.892434
0.895506
0.894854
0.891409
0.888124
0.881937
0.874372
0.86504
0.856392
0.845877
0.835361
0.820589
0.806579
0.789782
0.771761
0.754609
0.734512
0.717847
0.700346
0.683734
0.667761
0.650293
0.634848
0.617353
0.600992
0.58376
0.566
0.548899
0.531377
0.514615
0.497006
0.480484
0.464116
0.448245
0.43267
0.417634
0.403721
0.390256
0.377963
0.366498
0.355988
0.346221
0.33755
0.329729
0.322054
0.315261
0.308802
0.302866
0.297216
0.291336
0.285811
0.280723
0.276128
0.271766
0.267428
0.264616
0.262082
0.263874
0.271339
0.280451
0.284435
0.293685
0.297658
0.306728
0.311298
0.322198
0.331541
0.339913
0.351234
0.354799
0.369375
0.364489
0.375063
0.382626
0.391509
0.390658
0.395381
0.38855
0.384843
0.380323
0.38039
0.36302
0.344085
0.00160909
0.0078767
0.0167982
0.0277812
0.039317
0.0518987
0.0644286
0.0764264
0.0879499
0.0991974
0.110611
0.123031
0.136531
0.151629
0.169608
0.190297
0.214494
0.242445
0.274743
0.311024
0.351479
0.395404
0.442968
0.492597
0.542914
0.593826
0.645269
0.696076
0.746844
0.796894
0.847375
0.895987
0.945673
0.994465
1.04431
1.09442
1.1454
1.19631
1.24817
1.30037
1.35295
1.40525
1.45702
1.50719
1.55502
1.59914
1.63853
1.67219
1.69528
1.71494
1.73323
1.73631
1.72576
1.7014
1.66511
1.61676
1.55808
1.49255
1.41884
1.33675
1.15107
0.92471
0.686321
0.482531
0.326868
0.220414
0.152248
0.10652
0.0762235
0.0551851
0.0437451
0.0354999
0.0335289
0.0401386
0.0617382
0.0965317
0.153997
0.22603
0.261019
0.265839
0.255794
0.275841
0.400398
0.623417
0.752947
0.778714
0.841284
0.893014
0.95201
1.02071
1.08569
1.14955
1.21341
1.27377
1.329
1.37991
1.4179
1.45154
1.4842
1.51074
1.53226
1.55504
1.57699
1.58489
1.5863
1.59194
1.57354
1.56161
1.53729
1.5152
1.49212
1.46684
1.43838
1.40949
1.38197
1.35516
1.33263
1.31316
1.28831
1.2696
1.24467
1.2204
1.19438
1.16437
1.13611
1.10484
1.07613
1.04417
1.01425
0.984368
0.955265
0.926959
0.899791
0.874535
0.851245
0.830393
0.811712
0.796091
0.782754
0.772766
0.765406
0.76075
0.757719
0.756566
0.758441
0.758787
0.759013
0.759883
0.762016
0.764665
0.767515
0.770471
0.774142
0.778302
0.782598
0.790278
0.79906
0.798786
0.802148
0.802639
0.812724
0.805918
0.81892
0.811838
0.825891
0.835845
0.823068
0.822809
0.824936
0.82675
0.829327
0.840759
0.839928
0.825105
0.808645
0.779137
0.756698
0.711849
0.688038
0.613575
0.00355074
0.014928
0.0361449
0.0583771
0.0836878
0.109185
0.133497
0.156152
0.177156
0.196973
0.216458
0.236547
0.258813
0.28471
0.315226
0.350519
0.390682
0.435181
0.483682
0.53519
0.589305
0.645189
0.702323
0.759459
0.816543
0.873306
0.929445
0.984696
1.03951
1.09393
1.14828
1.20267
1.25817
1.31448
1.37227
1.43144
1.49212
1.55405
1.61717
1.68096
1.74498
1.80841
1.8704
1.92981
1.98557
2.03632
2.08076
2.11768
2.14117
2.16425
2.173
2.16764
2.14838
2.11609
2.07145
2.01448
1.94537
1.86578
1.77839
1.68264
1.57798
1.46669
1.26518
1.00891
0.737139
0.50324
0.329626
0.21393
0.1401
0.0993489
0.076934
0.0636502
0.0541739
0.0565883
0.0835338
0.138765
0.221192
0.307802
0.388189
0.497354
0.661855
0.933624
1.01509
1.05997
1.10987
1.16812
1.26632
1.37639
1.49549
1.61276
1.72697
1.82624
1.91207
1.98204
2.04313
2.09556
2.14028
2.17965
2.21405
2.24223
2.26562
2.28757
2.30675
2.32273
2.33382
2.34217
2.34529
2.33909
2.32693
2.30141
2.28448
2.2639
2.241
2.21114
2.18544
2.16184
2.13303
2.10143
2.06611
2.02785
1.98511
1.93929
1.88993
1.83658
1.78135
1.72347
1.66444
1.604
1.54368
1.4838
1.42507
1.36867
1.31484
1.26445
1.21817
1.17639
1.13905
1.10714
1.08024
1.0593
1.04332
1.03135
1.02275
1.0176
1.01474
1.01278
1.01132
1.01034
1.01021
1.01016
1.01005
1.00995
1.01032
1.01034
1.01251
1.01842
1.02307
1.02288
1.02851
1.02457
1.03366
1.02638
1.03518
1.02703
1.03983
1.03248
1.03033
1.02778
1.03874
1.03067
1.03739
1.03486
1.02503
1.00374
0.981983
0.945844
0.916603
0.863704
0.832956
0.757671
0.00710883
0.0346343
0.0772669
0.11721
0.15782
0.196436
0.232023
0.264167
0.292971
0.31887
0.342815
0.366129
0.390612
0.418077
0.450205
0.487951
0.531738
0.581105
0.635366
0.693396
0.754352
0.817141
0.880999
0.945038
1.00886
1.07195
1.13417
1.19536
1.25587
1.31579
1.37565
1.4358
1.49685
1.55899
1.62265
1.68783
1.75462
1.82276
1.89201
1.96182
2.03159
2.1004
2.16731
2.23105
2.29032
2.34375
2.39006
2.42852
2.45325
2.476
2.48259
2.47507
2.45256
2.4152
2.36391
2.29911
2.22129
2.13114
2.03049
1.92147
1.80705
1.68875
1.56133
1.41015
1.17235
0.892955
0.627475
0.418599
0.272654
0.17763
0.123848
0.09204
0.0769855
0.0769113
0.113834
0.204287
0.33818
0.493391
0.698179
1.10899
1.21754
1.25606
1.28836
1.34501
1.44496
1.56947
1.71168
1.85897
2.00014
2.12984
2.24644
2.34772
2.43598
2.5127
2.5807
2.64111
2.69495
2.74301
2.78573
2.82356
2.85721
2.8877
2.91508
2.93932
2.96054
2.97828
2.98483
2.99638
2.99821
2.99425
2.98988
2.97944
2.96463
2.94518
2.92265
2.89564
2.86294
2.82476
2.7809
2.73081
2.67521
2.61427
2.5474
2.47524
2.3981
2.31643
2.23098
2.14245
2.05191
1.96026
1.86883
1.77916
1.6926
1.61058
1.53425
1.46449
1.40184
1.34688
1.30027
1.26214
1.23373
1.21069
1.19209
1.17824
1.16819
1.15968
1.15207
1.1452
1.13921
1.13368
1.12862
1.12439
1.12063
1.11859
1.11706
1.11757
1.11843
1.11904
1.11996
1.12029
1.12846
1.12281
1.12438
1.12223
1.12896
1.12273
1.12789
1.12205
1.12251
1.1252
1.12835
1.1211
1.10971
1.0882
1.06754
1.03263
1.00493
0.954654
0.922126
0.855983
0.0113692
0.0606898
0.12597
0.183226
0.236486
0.285514
0.330216
0.370525
0.406613
0.43896
0.46842
0.496184
0.523863
0.553233
0.586159
0.624136
0.668163
0.718405
0.77451
0.835509
0.90041
0.967981
1.03724
1.10715
1.17703
1.24622
1.31446
1.38156
1.44767
1.51296
1.57793
1.64292
1.70849
1.77492
1.8426
1.91158
1.98195
2.05348
2.12591
2.19869
2.27119
2.34245
2.41151
2.47708
2.5379
2.59261
2.63985
2.67882
2.70379
2.72805
2.73542
2.72771
2.70455
2.66605
2.61218
2.54306
2.45979
2.36301
2.25423
2.13487
2.00728
1.87471
1.74066
1.60445
1.46062
1.24515
0.974306
0.706594
0.483401
0.325587
0.216353
0.163366
0.138414
0.130744
0.190511
0.332176
0.562481
0.872893
1.34675
1.41203
1.40074
1.42857
1.49609
1.60623
1.7454
1.89999
2.06527
2.22524
2.37396
2.50913
2.6302
2.73763
2.83318
2.91862
2.9955
3.06523
3.12852
3.18654
3.23982
3.28892
3.33389
3.37614
3.41462
3.44975
3.48142
3.50838
3.52976
3.54685
3.55986
3.56496
3.57384
3.5722
3.56478
3.55192
3.53284
3.50734
3.47466
3.43536
3.3889
3.33534
3.27482
3.20717
3.13248
3.05063
2.96143
2.86505
2.76203
2.65304
2.53908
2.42114
2.30063
2.17927
2.0592
1.94257
1.83139
1.72756
1.63268
1.54729
1.47502
1.41203
1.36238
1.32003
1.28612
1.25908
1.23728
1.22169
1.20746
1.19433
1.18271
1.17218
1.16303
1.15609
1.14776
1.14405
1.14058
1.13888
1.13815
1.13767
1.13738
1.13744
1.14461
1.14095
1.14544
1.14085
1.14149
1.1411
1.14336
1.14701
1.14412
1.1476
1.14822
1.14066
1.13091
1.11176
1.09457
1.06435
1.04048
0.999495
0.969393
0.917765
0.0164459
0.0907702
0.177312
0.249342
0.313096
0.370654
0.422737
0.469686
0.511924
0.550039
0.584886
0.617563
0.649489
0.682265
0.717656
0.757224
0.802215
0.85323
0.91032
0.972902
1.04016
1.1109
1.18399
1.25823
1.33271
1.40658
1.47944
1.55092
1.62111
1.6901
1.75832
1.82612
1.89403
1.9624
2.03165
2.10195
2.17346
2.24606
2.31964
2.39372
2.46774
2.54086
2.61212
2.68029
2.74412
2.80216
2.85288
2.89535
2.92341
2.95148
2.96371
2.95921
2.93818
2.90126
2.84802
2.77802
2.69211
2.59133
2.47644
2.34877
2.2105
2.06444
1.9145
1.76505
1.61833
1.46628
1.26649
1.00587
0.739659
0.514631
0.347137
0.264314
0.223654
0.219426
0.282861
0.524723
0.876144
1.44591
1.56376
1.52286
1.50916
1.57255
1.67881
1.81575
1.97357
2.14692
2.3259
2.49502
2.65127
2.79357
2.92202
3.03756
3.14168
3.23574
3.3213
3.39964
3.47176
3.53873
3.60097
3.65898
3.71343
3.76449
3.81152
3.85529
3.89521
3.93035
3.96075
3.9859
4.00233
4.02453
4.0303
4.03745
4.03472
4.02652
4.01162
3.98906
3.95865
3.92065
3.87544
3.82309
3.76266
3.69373
3.61611
3.52962
3.43414
3.32963
3.21609
3.09388
2.96392
2.82698
2.68416
2.53709
2.38809
2.24
2.09496
1.95607
1.82729
1.70817
1.60299
1.51002
1.42842
1.36877
1.32063
1.2809
1.25005
1.22177
1.19514
1.1712
1.15068
1.13243
1.11676
1.10412
1.09354
1.08537
1.07929
1.07579
1.07433
1.07217
1.07159
1.07218
1.07433
1.07597
1.07891
1.08103
1.08434
1.08757
1.09145
1.09543
1.09668
1.09872
1.10078
1.09752
1.09258
1.07983
1.06909
1.048
1.0307
1.00135
0.975064
0.939114
0.022929
0.123855
0.229323
0.314381
0.387308
0.451948
0.509899
0.562031
0.609084
0.65182
0.691155
0.728172
0.764195
0.800668
0.839153
0.881082
0.927728
0.979875
1.03788
1.10147
1.16997
1.2423
1.31731
1.39374
1.47057
1.54682
1.6219
1.69539
1.76726
1.83756
1.90672
1.97512
2.04335
2.11182
2.18105
2.25134
2.32301
2.39613
2.47074
2.5466
2.62329
2.70008
2.77612
2.85022
2.92105
2.98699
3.04631
3.09748
3.13612
3.16378
3.18823
3.19174
3.17776
3.14585
3.09587
3.02796
2.94206
2.83839
2.71769
2.58172
2.43291
2.27413
2.10868
1.94082
1.77596
1.61713
1.45685
1.2597
1.00001
0.729937
0.503611
0.3874
0.338129
0.318241
0.496751
0.83845
1.46805
1.66474
1.62396
1.56906
1.59836
1.69168
1.82189
1.97918
2.15859
2.35383
2.54423
2.72188
2.88514
3.03396
3.16892
3.2912
3.40206
3.50281
3.59489
3.67947
3.75775
3.8305
3.89855
3.96234
4.02266
4.07938
4.13237
4.18163
4.22689
4.26758
4.3037
4.33488
4.36101
4.38231
4.39344
4.39818
4.39642
4.39113
4.37855
4.35783
4.32913
4.29309
4.24986
4.19812
4.13761
4.06775
3.98818
3.89868
3.799
3.68905
3.56871
3.43821
3.29784
3.14801
2.98934
2.82309
2.65125
2.4776
2.30358
2.13229
1.96754
1.8124
1.66725
1.55
1.45233
1.36499
1.29299
1.23107
1.18012
1.13819
1.1032
1.07325
1.04825
1.02589
1.00693
0.991684
0.978897
0.968089
0.96025
0.955365
0.95328
0.952221
0.951709
0.951502
0.952365
0.955163
0.959054
0.963815
0.969654
0.975858
0.983263
0.989911
0.996883
1.00278
1.00975
1.00997
1.01174
1.0065
1.00335
0.992857
0.982832
0.966011
0.94718
0.925209
0.0308511
0.159352
0.281761
0.377888
0.458531
0.52894
0.591498
0.647572
0.698229
0.744438
0.787202
0.82761
0.866915
0.906435
0.947563
0.991599
1.03972
1.09272
1.15105
1.21456
1.28279
1.35478
1.4295
1.5057
1.58232
1.65835
1.73315
1.80625
1.8776
1.94726
2.01566
2.08325
2.15067
2.21844
2.28717
2.35729
2.42928
2.50338
2.57981
2.65855
2.73945
2.82199
2.90546
2.9888
3.07069
3.14938
3.22294
3.28901
3.34629
3.3852
3.42202
3.43934
3.43727
3.41493
3.3717
3.30748
3.22232
3.11606
2.98945
2.84449
2.68406
2.51144
2.33022
2.14415
1.95784
1.77709
1.60656
1.43629
1.23188
0.970419
0.708851
0.552395
0.495689
0.534588
0.785411
1.3814
1.75891
1.71429
1.63813
1.6206
1.68883
1.80726
1.95698
2.13123
2.32885
2.53563
2.73363
2.9178
3.08729
3.24258
3.38425
3.51339
3.63101
3.73839
3.83672
3.92722
4.0109
4.08867
4.16119
4.22905
4.2926
4.35202
4.40734
4.45862
4.50562
4.54806
4.58567
4.61825
4.64574
4.66581
4.67576
4.67831
4.67548
4.66927
4.65551
4.63402
4.60501
4.56884
4.52508
4.47277
4.41153
4.34074
4.25998
4.16881
4.06692
3.95404
3.82976
3.69402
3.5468
3.38787
3.21741
3.03592
2.84434
2.6446
2.44092
2.23726
2.03481
1.85253
1.68596
1.5315
1.39416
1.27838
1.18755
1.11785
1.06312
1.01977
0.984598
0.954879
0.930286
0.907626
0.888845
0.873945
0.860241
0.84912
0.839995
0.834622
0.829115
0.827002
0.82648
0.827526
0.829812
0.833397
0.837788
0.843436
0.850283
0.857834
0.867245
0.875839
0.886232
0.896124
0.905151
0.910488
0.915459
0.919685
0.922663
0.921148
0.918991
0.912693
0.901882
0.891115
0.0400542
0.195937
0.333163
0.438414
0.525212
0.600039
0.665996
0.724904
0.778127
0.82681
0.872024
0.914866
0.956531
0.998209
1.04114
1.08645
1.13519
1.18808
1.24557
1.30764
1.37393
1.44368
1.51598
1.5897
1.66386
1.7375
1.81006
1.88109
1.95052
2.01845
2.08529
2.15145
2.21759
2.28426
2.35214
2.42176
2.49375
2.56854
2.6466
2.72821
2.81352
2.90228
2.99411
3.0883
3.18374
3.27872
3.37117
3.45853
3.53795
3.60532
3.65216
3.69283
3.71074
3.70494
3.67409
3.6173
3.5347
3.42698
3.29505
3.14086
2.96769
2.77947
2.58057
2.37536
2.16811
1.96367
1.76977
1.58786
1.40759
1.18685
0.94115
0.760311
0.688968
0.794745
1.20787
1.69771
1.83715
1.72173
1.6556
1.68297
1.77896
1.91503
2.07808
2.26413
2.47523
2.68908
2.89285
3.08276
3.25837
3.42006
3.56842
3.70427
3.82842
3.94206
4.04621
4.14206
4.23049
4.31245
4.38838
4.45895
4.52432
4.58487
4.64061
4.69172
4.73793
4.77909
4.8147
4.84466
4.86862
4.883
4.88767
4.88564
4.88101
4.87029
4.85201
4.82679
4.79482
4.75547
4.70814
4.65246
4.58833
4.51516
4.43234
4.33926
4.23548
4.12046
3.99327
3.85341
3.70044
3.53417
3.35311
3.15676
2.94518
2.72102
2.4971
2.27065
2.04599
1.82225
1.60354
1.41216
1.25815
1.14057
1.05491
0.992291
0.944232
0.906363
0.875574
0.849142
0.826847
0.80521
0.788401
0.774186
0.76006
0.749135
0.739304
0.734328
0.726168
0.72311
0.722993
0.724904
0.727854
0.7318
0.736337
0.742101
0.749142
0.757028
0.767265
0.777098
0.789584
0.802625
0.814452
0.823977
0.83271
0.840603
0.848237
0.853037
0.85654
0.857254
0.853829
0.851131
0.0500643
0.231656
0.38119
0.493632
0.585058
0.663078
0.731422
0.792297
0.8473
0.897695
0.944596
0.989083
1.03227
1.07524
1.11906
1.16471
1.21309
1.26483
1.32039
1.37979
1.4428
1.50884
1.57718
1.64688
1.71712
1.7871
1.85629
1.92428
1.99103
2.05658
2.12124
2.1854
2.24964
2.31449
2.38062
2.44865
2.51927
2.59317
2.67102
2.75341
2.84099
2.93425
3.03339
3.13799
3.24697
3.3593
3.47305
3.58565
3.69316
3.79202
3.87566
3.93475
3.98215
4.00161
3.99104
3.94875
3.87439
3.76876
3.63342
3.47069
3.28423
3.07877
2.85976
2.6328
2.40306
2.17509
1.95671
1.75234
1.56043
1.3711
1.13063
0.993645
0.941168
1.13037
1.54761
1.78194
1.81495
1.71715
1.68895
1.74774
1.86155
2.00871
2.18038
2.37545
2.59484
2.8138
3.02259
3.2181
3.39975
3.56781
3.72273
3.86505
3.99551
4.11507
4.22482
4.3257
4.41861
4.50421
4.58301
4.65541
4.72174
4.78221
4.83705
4.88628
4.92987
4.96742
4.99857
5.02298
5.0388
5.04418
5.04142
5.0346
5.02172
5.00079
4.97227
4.93775
4.89693
4.84944
4.79498
4.73333
4.66424
4.58717
4.50121
4.40554
4.29962
4.18304
4.05428
3.91238
3.75638
3.58566
3.3982
3.19302
2.96956
2.73078
2.47958
2.2138
1.9326
1.6621
1.42555
1.23705
1.09789
0.998247
0.929859
0.880607
0.842662
0.811826
0.786174
0.762836
0.742232
0.721544
0.706907
0.6917
0.677918
0.666647
0.657117
0.651401
0.640863
0.637332
0.638048
0.641058
0.644849
0.649296
0.654168
0.660196
0.667623
0.676104
0.687278
0.69897
0.713213
0.729387
0.744995
0.758495
0.771056
0.782012
0.792911
0.799525
0.80342
0.807347
0.810118
0.812173
0.0601778
0.264176
0.423275
0.54103
0.635734
0.71596
0.785952
0.848213
0.904505
0.956158
1.00428
1.04992
1.0941
1.13777
1.18186
1.22721
1.27459
1.32458
1.37763
1.43379
1.49293
1.55457
1.61821
1.68314
1.74874
1.81439
1.87964
1.94417
2.0079
2.07088
2.13276
2.19404
2.25527
2.31694
2.37964
2.444
2.51084
2.58101
2.65558
2.73562
2.8223
2.91643
3.01886
3.12979
3.2482
3.37686
3.51286
3.65312
3.7929
3.92808
4.05317
4.15841
4.23426
4.29008
4.31084
4.29324
4.2358
4.13909
4.00488
3.83597
3.63672
3.41284
3.17105
2.91852
2.66217
2.40749
2.1623
1.93304
1.71595
1.51864
1.29872
1.19618
1.19091
1.43512
1.71753
1.87597
1.82456
1.72428
1.72857
1.80734
1.93156
2.08505
2.26214
2.46447
2.68823
2.91126
3.12484
3.32588
3.51359
3.68797
3.84938
3.99807
4.13474
4.2602
4.37559
4.48163
4.57905
4.66819
4.74959
4.82344
4.89018
4.94987
5.00287
5.04908
5.08863
5.12093
5.14575
5.16056
5.1653
5.16019
5.14911
5.12851
5.1003
5.06495
5.02377
4.97847
4.92775
4.87129
4.80902
4.74064
4.66598
4.58455
4.49529
4.39707
4.28882
4.16801
4.0368
3.89197
3.73176
3.5548
3.35805
3.1396
2.8958
2.62759
2.32818
2.0126
1.7065
1.43537
1.21848
1.05891
0.950722
0.879128
0.830281
0.792875
0.762675
0.736203
0.714079
0.691939
0.672082
0.652676
0.638936
0.622541
0.609594
0.598157
0.588302
0.57925
0.568476
0.565915
0.568279
0.572663
0.577295
0.582292
0.587794
0.594624
0.603016
0.613044
0.625912
0.640397
0.657069
0.676244
0.694967
0.711811
0.727424
0.740057
0.752818
0.755465
0.761199
0.768794
0.773773
0.77791
0.0693723
0.291307
0.457489
0.57861
0.675441
0.757146
0.82833
0.891697
0.949105
1.0019
1.05117
1.09788
1.14297
1.18725
1.23155
1.27657
1.32296
1.37123
1.42177
1.47474
1.53011
1.58753
1.64647
1.70649
1.76735
1.82854
1.88976
1.95074
2.01139
2.07142
2.13044
2.1888
2.24676
2.30453
2.36247
2.42097
2.48072
2.54266
2.60807
2.6786
2.75668
2.84407
2.94317
3.05716
3.18992
3.33163
3.48269
3.64614
3.82024
3.99717
4.16808
4.32645
4.45857
4.55538
4.62105
4.6415
4.61312
4.5355
4.41016
4.24023
4.03082
3.78864
3.52187
3.23964
2.9515
2.66563
2.38947
2.13224
1.89104
1.67703
1.4781
1.40344
1.45387
1.6688
1.79858
1.85404
1.79179
1.73744
1.76667
1.85721
1.98644
2.14264
2.32253
2.53028
2.75677
2.98328
3.20149
3.40804
3.60176
3.78251
3.95034
4.1055
4.24844
4.38007
4.50125
4.61262
4.71456
4.80743
4.89146
4.96689
5.03387
5.09259
5.14318
5.18571
5.22019
5.24612
5.26049
5.26413
5.25702
5.23862
5.21048
5.17408
5.13118
5.08083
5.02352
4.96093
4.89357
4.8219
4.74606
4.66568
4.58056
4.49017
4.39363
4.2894
4.17626
4.05268
3.9174
3.76822
3.60269
3.41802
3.20897
2.97213
2.69807
2.38851
2.06145
1.73939
1.44757
1.20584
1.03009
0.915394
0.840141
0.789901
0.752971
0.72261
0.696909
0.673263
0.653411
0.631058
0.612621
0.594322
0.579988
0.564502
0.549795
0.54069
0.528015
0.52046
0.511735
0.511663
0.514762
0.51898
0.52354
0.528815
0.535159
0.543246
0.553265
0.565582
0.580459
0.597408
0.616442
0.638121
0.658853
0.678856
0.696103
0.709852
0.719362
0.724666
0.732011
0.739882
0.746643
0.748638
0.0768537
0.311177
0.482036
0.605009
0.703141
0.785887
0.858082
0.922551
0.981201
1.03536
1.08607
1.13422
1.18062
1.226
1.27102
1.31625
1.36222
1.40934
1.45799
1.50835
1.5605
1.61424
1.66926
1.72513
1.78156
1.83842
1.89564
1.95295
2.01019
2.06603
2.12057
2.17405
2.22656
2.27808
2.32877
2.37893
2.42913
2.48027
2.53373
2.59103
2.65472
2.7282
2.81498
2.91841
3.0433
3.19447
3.37964
3.57117
3.77122
3.98456
4.20729
4.42249
4.62053
4.78427
4.90597
4.98075
4.99643
4.9514
4.84635
4.68429
4.47065
4.21301
3.92101
3.60593
3.27993
2.95704
2.6483
2.36094
2.09654
1.83795
1.68416
1.6216
1.66865
1.83788
1.89241
1.86943
1.77905
1.75394
1.79912
1.89532
2.02551
2.18143
2.36184
2.57358
2.80196
3.0315
3.25408
3.46598
3.66563
3.85259
4.02681
4.18839
4.33766
4.4755
4.60254
4.71939
4.82616
4.92311
5.01015
5.08749
5.15496
5.21278
5.26081
5.29927
5.32748
5.34315
5.34739
5.33736
5.31381
5.28039
5.23604
5.18145
5.11697
5.04442
4.96551
4.88183
4.79447
4.70451
4.61246
4.51789
4.42051
4.31959
4.21417
4.10281
3.98412
3.85606
3.71619
3.56156
3.38842
3.19252
2.96395
2.69864
2.399
2.07747
1.75474
1.45486
1.2009
1.01328
0.889998
0.810959
0.757423
0.719933
0.689585
0.663891
0.640776
0.619708
0.600418
0.578337
0.561619
0.543752
0.529387
0.512737
0.500946
0.490209
0.477993
0.469429
0.469784
0.47128
0.473625
0.476963
0.481313
0.487106
0.494608
0.504061
0.51563
0.530177
0.548319
0.569193
0.591836
0.615939
0.638294
0.659538
0.677284
0.68877
0.698282
0.70537
0.712762
0.7178
0.72422
0.725509
0.0814737
0.322862
0.496343
0.619972
0.718824
0.802381
0.875581
0.94135
1.0016
1.0576
1.11031
1.16055
1.20902
1.2563
1.30293
1.34931
1.39587
1.44291
1.49074
1.53954
1.58944
1.64039
1.69223
1.74468
1.79754
1.85055
1.90369
1.95696
2.00926
2.05993
2.10966
2.15804
2.20477
2.24955
2.29224
2.33286
2.37169
2.40936
2.44714
2.48684
2.53083
2.58298
2.64817
2.73246
2.84297
2.98571
3.16285
3.3792
3.64477
3.90435
4.16287
4.44001
4.70593
4.94745
5.14783
5.29376
5.36938
5.37317
5.30363
5.1626
4.9553
4.68971
4.37614
4.02865
3.66424
3.29978
2.95248
2.63327
2.34474
2.07027
1.91012
1.84122
1.85063
1.91121
1.89955
1.86185
1.78156
1.77219
1.82503
1.92193
2.0498
2.20301
2.38246
2.59583
2.82536
3.0574
3.28366
3.50026
3.70537
3.89818
4.07848
4.24618
4.40164
4.54549
4.67845
4.80084
4.91282
5.01418
5.10481
5.18444
5.2529
5.30992
5.35532
5.38861
5.40769
5.41298
5.40328
5.37951
5.34152
5.28835
5.2213
5.1419
5.05221
4.95446
4.85116
4.74456
4.63608
4.52705
4.41822
4.30958
4.20071
4.0907
3.97796
3.86053
3.73655
3.60318
3.45688
3.29383
3.1081
2.8942
2.64619
2.36743
2.06432
1.7517
1.45295
1.19316
1.00152
0.871518
0.788507
0.732029
0.692132
0.661789
0.635759
0.613185
0.591894
0.572711
0.553213
0.532775
0.517108
0.499703
0.485455
0.468692
0.458886
0.445539
0.4352
0.43461
0.434705
0.43627
0.438881
0.442791
0.447939
0.454629
0.463332
0.475525
0.491091
0.510466
0.533127
0.557567
0.582989
0.608697
0.632229
0.653098
0.670753
0.680456
0.687814
0.693062
0.696938
0.701516
0.706627
0.70653
0.0821097
0.318875
0.495799
0.62193
0.722136
0.80695
0.881655
0.949301
1.01177
1.07022
1.12532
1.17826
1.22957
1.27964
1.32884
1.37745
1.42573
1.47387
1.52208
1.57052
1.61934
1.66855
1.71812
1.76789
1.81769
1.8673
1.9166
1.96536
2.01353
2.05902
2.10332
2.14579
2.18587
2.22301
2.25685
2.28714
2.31392
2.33755
2.35902
2.38028
2.40352
2.43288
2.47446
2.53589
2.62598
2.75375
2.92591
3.14472
3.40412
3.70623
4.06096
4.38391
4.71739
5.03751
5.32502
5.55935
5.71279
5.78186
5.76534
5.66185
5.47585
5.21501
4.89027
4.51739
4.11701
3.70955
3.31803
2.96265
2.64577
2.37262
2.15003
2.04946
1.99686
1.98875
1.94876
1.84465
1.7891
1.79002
1.8449
1.9388
2.06188
2.21034
2.38854
2.60151
2.83541
3.06953
3.29481
3.51331
3.72246
3.92008
4.10552
4.27851
4.43929
4.58852
4.72695
4.85466
4.97175
5.0777
5.17219
5.25444
5.32398
5.37969
5.42076
5.44704
5.45775
5.45188
5.42894
5.38752
5.32815
5.25122
5.15855
5.05244
4.93611
4.81225
4.68433
4.55529
4.42735
4.30195
4.17978
4.06056
3.94336
3.82686
3.70856
3.58577
3.45642
3.3163
3.16045
2.98446
2.78409
2.55723
2.30387
2.02675
1.73347
1.44213
1.18662
0.993895
0.861096
0.77181
0.712958
0.669578
0.63807
0.611621
0.588919
0.568333
0.548705
0.530845
0.511546
0.492997
0.478581
0.460507
0.447955
0.431882
0.422266
0.409316
0.404416
0.403983
0.404884
0.407253
0.410813
0.415499
0.422625
0.432412
0.445308
0.462208
0.481567
0.504713
0.530871
0.559263
0.588251
0.615638
0.639814
0.658831
0.674099
0.680883
0.685138
0.68806
0.688913
0.691373
0.693859
0.69234
0.0807748
0.317449
0.492428
0.616649
0.716555
0.801875
0.877679
0.946936
1.01152
1.07262
1.13107
1.18769
1.24248
1.296
1.34853
1.40018
1.45104
1.50117
1.55071
1.59981
1.64866
1.69732
1.74579
1.79394
1.84161
1.88859
1.93468
1.97961
2.02316
2.06528
2.10368
2.13953
2.17211
2.2007
2.22489
2.24438
2.25913
2.26945
2.27619
2.28139
2.28762
2.29906
2.32274
2.36785
2.44526
2.56509
2.73389
2.95369
3.21921
3.52309
3.87565
4.29275
4.66677
5.05798
5.43131
5.75635
6.01214
6.16144
6.21145
6.16218
6.01452
5.7751
5.45413
5.06801
4.63918
4.19111
3.75141
3.35064
2.99726
2.68915
2.43513
2.26086
2.13411
2.05641
1.95094
1.85033
1.80541
1.80943
1.86108
1.94778
2.05905
2.20614
2.38874
2.60147
2.8364
3.0686
3.29065
3.51078
3.72233
3.92316
4.11217
4.28912
4.45347
4.60713
4.75063
4.8836
5.00581
5.11668
5.21483
5.29918
5.36868
5.42231
5.45866
5.47727
5.47719
5.4567
5.41482
5.35143
5.26718
5.16367
5.0433
4.90954
4.76654
4.61815
4.46862
4.32148
4.17904
4.04243
3.91199
3.78672
3.66504
3.54509
3.42311
3.29528
3.15797
3.00744
2.83977
2.65232
2.44541
2.2177
1.96882
1.70092
1.42681
1.18198
0.991574
0.855787
0.762179
0.697739
0.652661
0.617541
0.591154
0.567518
0.547427
0.528455
0.510269
0.493473
0.474797
0.458736
0.443307
0.427568
0.415174
0.400732
0.392069
0.381441
0.377788
0.378228
0.38023
0.384391
0.390665
0.398978
0.410178
0.423456
0.439782
0.460143
0.485313
0.515518
0.548652
0.582458
0.614391
0.64192
0.664362
0.67991
0.689078
0.6916
0.69411
0.692502
0.691987
0.690046
0.68622
0.684044
0.0748657
0.293801
0.470779
0.595455
0.696535
0.783495
0.861464
0.933358
1.00103
1.06556
1.12748
1.18752
1.246
1.30351
1.35977
1.41445
1.46755
1.51925
1.57012
1.62036
1.67005
1.71923
1.7679
1.81599
1.86333
1.90973
1.95488
1.99831
2.03948
2.07775
2.11362
2.14439
2.17004
2.18999
2.20507
2.21494
2.21973
2.21984
2.21636
2.21125
2.2079
2.21192
2.23223
2.27885
2.36176
2.48879
2.66482
2.88701
3.14218
3.43217
3.77139
4.19094
4.59995
5.04449
5.48617
5.89717
6.24255
6.50146
6.62388
6.64058
6.54679
6.34536
6.04537
5.66158
5.21672
4.73605
4.25025
3.79444
3.39021