/*--------------------------------*- C++ -*----------------------------------*\
| =========                 |                                                 |
| \\      /  F ield         | OpenFOAM: The Open Source CFD Toolbox           |
|  \\    /   O peration     | Version:  4.x                                   |
|   \\  /    A nd           | Web:      www.OpenFOAM.org                      |
|    \\/     M anipulation  |                                                 |
\*---------------------------------------------------------------------------*/
FoamFile
{
    version     2.0;
    format      ascii;
    class       volScalarField;
    location    "100";
    object      nut;
}
// * * * * * * * * * * * * * * * * * * * * * * * * * * * * * * * * * * * * * //

dimensions      [0 2 -1 0 0 0 0];

internalField   nonuniform List<scalar> 
12225
(
5.34254e-06
8.14823e-06
1.00303e-05
1.11495e-05
1.16596e-05
1.1826e-05
1.18661e-05
1.17409e-05
1.15683e-05
1.139e-05
1.12162e-05
1.10514e-05
1.09101e-05
1.07697e-05
1.06731e-05
1.05483e-05
1.05041e-05
1.04002e-05
0.000251598
5.71954e-05
4.43878e-05
3.63298e-05
3.32926e-05
3.22715e-05
3.20113e-05
3.25165e-05
3.32037e-05
3.3058e-05
3.26831e-05
3.29227e-05
3.28354e-05
3.33e-05
3.33864e-05
3.40343e-05
3.43429e-05
3.52951e-05
0.000597041
0.000320948
0.000223315
0.000164725
0.000133414
0.000113526
0.000102067
9.25193e-05
8.63913e-05
7.94985e-05
7.49232e-05
6.99673e-05
6.67973e-05
6.33031e-05
6.12093e-05
5.87324e-05
5.74208e-05
5.57137e-05
0.00076959
0.000637249
0.00053154
0.000438571
0.000376765
0.000325255
0.000294416
0.000264221
0.000245869
0.000224544
0.000211459
0.000195785
0.000186565
0.000174819
0.000168368
0.00015946
0.00015514
0.000148346
0.000857122
0.000776652
0.000727426
0.000673663
0.000629881
0.000577193
0.000541156
0.000500653
0.000474484
0.000443745
0.000424192
0.000400006
0.000385266
0.000365958
0.000355018
0.000339479
0.000331703
0.000318997
0.000858415
0.000835163
0.000817454
0.000794974
0.000776131
0.00074634
0.000723428
0.000693342
0.000671632
0.000644648
0.000625927
0.000602442
0.0005869
0.000566597
0.000554159
0.000536624
0.000527229
0.000511995
0.000853494
0.000848456
0.000842754
0.000836452
0.000829247
0.000819079
0.00081009
0.000796125
0.000784931
0.000769555
0.000757877
0.000742513
0.000731395
0.0007167
0.000706795
0.000693098
0.000684844
0.000672285
0.000852039
0.00085013
0.000848125
0.000845344
0.000842707
0.000838425
0.000834293
0.000829285
0.000823943
0.000816812
0.000810621
0.000802243
0.00079566
0.000786867
0.000780425
0.000771615
0.000765787
0.000757114
0.000851697
0.000850351
0.000849263
0.000847762
0.000846452
0.000844562
0.000842669
0.000840361
0.000838027
0.000835154
0.000831896
0.000828332
0.00082469
0.000820419
0.000816612
0.000811921
0.000808154
0.000803158
0.000851609
0.000850473
0.00084954
0.000848502
0.000847578
0.000846475
0.000845423
0.000844214
0.000843034
0.000841652
0.000840297
0.000838612
0.000837134
0.000835162
0.000833567
0.000831295
0.000829612
0.000827079
0.000851578
0.000850561
0.000849669
0.000848771
0.000847963
0.000847103
0.000846297
0.000845464
0.000844675
0.000843819
0.00084305
0.000842108
0.000841386
0.000840302
0.000839656
0.000838414
0.000837834
0.00083654
0.000851565
0.000850611
0.000849754
0.000848907
0.000848138
0.000847367
0.000846628
0.000845926
0.000845235
0.000844573
0.000843945
0.000843274
0.000842748
0.000842014
0.000841613
0.000840805
0.000840501
0.000839706
0.00085156
0.000850637
0.000849808
0.000848981
0.000848235
0.000847495
0.000846791
0.000846128
0.000845472
0.000844873
0.000844277
0.000843704
0.000843202
0.000842611
0.000842231
0.000841606
0.000841324
0.000840729
0.000851561
0.000850647
0.000849843
0.000849018
0.000848294
0.000847555
0.000846881
0.000846221
0.00084559
0.000845005
0.000844421
0.000843884
0.000843374
0.000842844
0.000842439
0.000841896
0.00084158
0.00084107
0.000851559
0.000850648
0.000849861
0.000849034
0.000848325
0.000847583
0.000846926
0.000846263
0.000845648
0.000845062
0.000844487
0.000843959
0.000843442
0.00084294
0.000842507
0.000842008
0.000841655
0.000841188
0.000851559
0.000850647
0.000849873
0.000849041
0.000848342
0.000847594
0.000846949
0.000846281
0.000845676
0.000845085
0.000844516
0.000843988
0.000843465
0.000842977
0.000842521
0.000842049
0.000841665
0.000841221
0.000851562
0.000850647
0.000849883
0.000849046
0.000848356
0.000847599
0.000846963
0.000846287
0.00084569
0.000845093
0.000844527
0.000843997
0.000843471
0.000842988
0.000842517
0.000842061
0.000841652
0.000841223
0.00085156
0.00085065
0.000849883
0.000849046
0.000848356
0.000847594
0.000846962
0.000846279
0.000845685
0.000845081
0.000844517
0.000843982
0.000843453
0.000842969
0.000842488
0.000842038
0.000841612
0.00084119
0.000851561
0.000850644
0.000849881
0.000849037
0.000848353
0.000847582
0.000846956
0.000846262
0.000845677
0.000845059
0.000844504
0.000843956
0.000843432
0.000842941
0.000842456
0.000842005
0.000841569
0.000841148
0.000851558
0.00085065
0.000849878
0.000849043
0.00084835
0.000847587
0.000846952
0.000846266
0.000845671
0.000845061
0.000844494
0.000843955
0.000843416
0.000842935
0.000842431
0.000841992
0.000841533
0.00084112
0.000851561
0.000850647
0.000849877
0.000849033
0.000848348
0.000847575
0.000846946
0.000846245
0.000845655
0.000845031
0.000844464
0.000843913
0.000843364
0.000842874
0.000842349
0.000841904
0.000841412
0.000840991
0.000851567
0.000850642
0.000849865
0.000849011
0.000848324
0.000847533
0.000846896
0.00084617
0.000845559
0.000844901
0.000844293
0.000843697
0.00084308
0.000842534
0.00084191
0.000841399
0.000840775
0.000840276
0.000851567
0.000850629
0.000849813
0.000848983
0.000848225
0.000847401
0.000846624
0.00084578
0.000844959
0.000844097
0.000843199
0.000842303
0.000841301
0.00084037
0.000839269
0.000838312
0.000837137
0.000836143
0.000851619
0.000850481
0.000849666
0.000848784
0.000847619
0.000846298
0.000844681
0.00084292
0.000840894
0.000838795
0.000836362
0.000833838
0.00083105
0.000828176
0.000825115
0.00082212
0.000818817
0.000815899
0.000851669
0.000848598
0.000848078
0.000845985
0.0008422
0.000837381
0.000831574
0.000824823
0.000816974
0.00080952
0.000801068
0.000793175
0.000784438
0.00077654
0.000767885
0.000760338
0.000751978
0.000744996
0.000845214
0.000826874
0.000832335
0.000819859
0.000805207
0.000785365
0.000762924
0.000742452
0.000720872
0.000701953
0.000682337
0.000665517
0.000648109
0.000633523
0.000618258
0.000605804
0.000592431
0.000581906
0.000749096
0.000756704
0.000742646
0.000698258
0.000645097
0.000599237
0.000556655
0.000522629
0.000490954
0.000465943
0.000442033
0.000423358
0.000404914
0.000390713
0.000376145
0.000365158
0.000353367
0.00034472
0.000412659
0.000446172
0.000419084
0.000359492
0.000309041
0.000272846
0.000244246
0.000223467
0.000205941
0.000193022
0.000181474
0.000173039
0.000165011
0.00015928
0.000153434
0.000149388
0.000144953
0.000141924
0.000114221
0.00011643
9.86063e-05
8.37768e-05
7.38171e-05
6.73867e-05
6.29981e-05
6.00973e-05
5.80947e-05
5.68431e-05
5.60763e-05
5.5761e-05
5.56821e-05
5.59015e-05
5.61946e-05
5.57017e-05
5.50613e-05
5.44403e-05
6.13411e-06
8.07447e-06
9.64564e-06
1.08748e-05
1.17951e-05
1.24714e-05
1.29452e-05
1.3281e-05
1.35283e-05
1.36907e-05
1.37805e-05
1.38398e-05
1.38481e-05
1.38233e-05
1.37736e-05
1.37201e-05
1.36664e-05
1.36115e-05
4.32276e-08
9.53023e-07
2.13858e-06
3.95207e-06
5.95463e-06
8.08966e-06
1.03711e-05
1.22256e-05
1.38243e-05
1.51355e-05
1.5804e-05
1.86024e-05
2.03977e-05
2.21689e-05
2.43528e-05
2.63874e-05
2.88192e-05
3.14278e-05
3.43102e-05
3.73935e-05
4.07337e-05
4.41319e-05
4.76071e-05
5.10015e-05
5.43682e-05
5.74974e-05
6.05208e-05
6.32553e-05
6.60648e-05
6.85129e-05
7.09654e-05
7.31997e-05
7.53895e-05
7.74372e-05
7.94941e-05
8.13918e-05
8.33246e-05
8.52513e-05
8.71905e-05
8.89717e-05
9.06694e-05
9.22177e-05
9.38697e-05
9.539e-05
9.67421e-05
9.78693e-05
9.91607e-05
0.000100748
0.000101945
0.000101914
0.000101729
0.000103203
0.000104274
0.00010299
9.9718e-05
0.000100043
0.00010253
0.000106048
0.000104669
9.89262e-05
8.58831e-05
7.05807e-05
5.62122e-05
4.11744e-05
3.12789e-05
2.48304e-05
2.02577e-05
1.67136e-05
1.40092e-05
1.11984e-05
9.0328e-06
6.98379e-06
5.91224e-06
5.10671e-06
4.92139e-06
5.4305e-06
8.31561e-06
1.19499e-05
1.78006e-05
2.04127e-05
1.74418e-05
1.62184e-05
1.57152e-05
2.18382e-05
2.55987e-05
3.76058e-05
5.30411e-05
5.35572e-05
5.89897e-05
5.55777e-05
5.78656e-05
5.54678e-05
5.41866e-05
5.28305e-05
5.15887e-05
5.02682e-05
4.91827e-05
4.80645e-05
4.71847e-05
4.62953e-05
4.54315e-05
4.47226e-05
4.40031e-05
4.3336e-05
4.26932e-05
4.21852e-05
4.16781e-05
4.12579e-05
4.07114e-05
4.02803e-05
3.97829e-05
3.92919e-05
3.89101e-05
3.84362e-05
3.81997e-05
3.7976e-05
3.78551e-05
3.78231e-05
3.77566e-05
3.78583e-05
3.78847e-05
3.80252e-05
3.81542e-05
3.82858e-05
3.84981e-05
3.87123e-05
3.90121e-05
3.92707e-05
3.96368e-05
4.00371e-05
4.04999e-05
4.10087e-05
4.15922e-05
4.232e-05
4.31372e-05
4.41417e-05
4.53202e-05
4.67289e-05
4.83907e-05
5.04314e-05
5.29067e-05
5.40727e-05
5.32556e-05
5.24475e-05
5.17096e-05
5.09649e-05
5.01957e-05
4.94482e-05
4.87128e-05
4.80357e-05
4.73958e-05
4.67073e-05
4.62368e-05
4.5687e-05
4.54722e-05
4.6145e-05
4.70803e-05
4.72444e-05
4.82709e-05
4.85138e-05
4.93191e-05
4.95747e-05
5.06415e-05
5.13543e-05
5.09534e-05
4.89728e-05
4.63219e-05
4.53999e-05
4.23899e-05
4.1443e-05
4.03255e-05
3.95018e-05
3.78601e-05
3.69243e-05
3.50729e-05
3.37025e-05
3.24247e-05
3.17579e-05
2.97402e-05
2.83501e-05
1.40054e-07
3.91845e-06
1.06017e-05
1.73229e-05
2.40821e-05
3.14205e-05
3.87263e-05
4.58055e-05
5.2023e-05
5.7935e-05
6.35613e-05
6.94303e-05
7.51931e-05
8.15585e-05
8.89569e-05
9.76336e-05
0.000107556
0.000118953
0.000131845
0.00014609
0.000161492
0.000177734
0.000196139
0.000219749
0.000238253
0.000260999
0.000284947
0.000309493
0.000335058
0.000361083
0.00039395
0.000414011
0.000447015
0.000467366
0.000490255
0.000511885
0.000533406
0.00055289
0.00057258
0.00059235
0.000612113
0.000631969
0.00065176
0.000670955
0.000689061
0.000705838
0.000721599
0.000734777
0.00074359
0.00075255
0.000763757
0.000773708
0.000781659
0.000782132
0.000772816
0.0007596
0.000742509
0.000728087
0.000727101
0.00073083
0.000645479
0.000514267
0.000360951
0.000237291
0.000169244
0.000115207
7.93805e-05
4.9485e-05
3.65211e-05
2.51228e-05
1.95644e-05
1.61994e-05
1.59745e-05
2.03792e-05
3.22529e-05
5.14186e-05
8.21736e-05
0.000121642
0.000136351
0.000142034
0.000139854
9.05741e-05
8.22375e-05
9.516e-05
0.000102269
0.000114152
0.000140977
0.000168444
0.000190674
0.00021868
0.000270954
0.000292169
0.000339873
0.000352084
0.000385045
0.000442013
0.000462165
0.00048361
0.000525154
0.000530142
0.000567905
0.000576633
0.000614287
0.000617916
0.000639544
0.000642812
0.000639435
0.000639206
0.000633784
0.000628816
0.000624161
0.00061928
0.000612246
0.000606005
0.000599106
0.000592298
0.000586967
0.000582505
0.000575883
0.000571389
0.000564391
0.00055756
0.000550342
0.000540158
0.000530908
0.000519844
0.000509669
0.000497516
0.000486597
0.000475863
0.000465101
0.000454028
0.000443469
0.00043308
0.000423705
0.000415276
0.000406649
0.000399184
0.000391722
0.000388213
0.00038339
0.000382539
0.000380823
0.000379293
0.000381449
0.00038095
0.000379431
0.000379558
0.000379798
0.000380141
0.000380214
0.000380229
0.00038069
0.000381919
0.000381083
0.000381778
0.000381785
0.000380418
0.000379269
0.000376366
0.000377459
0.000371337
0.000373862
0.000366655
0.000370401
0.000371905
0.000364145
0.000361077
0.000360216
0.000359033
0.000358831
0.000362734
0.000360868
0.000353922
0.00034594
0.000332439
0.000321804
0.00030033
0.000288129
0.000228949
3.08156e-07
7.90384e-06
3.03587e-05
5.11941e-05
7.29985e-05
9.40039e-05
0.000112514
0.00012919
0.000142916
0.000154504
0.000164884
0.000175293
0.00018723
0.000202036
0.000219436
0.000240041
0.000263845
0.000290843
0.000321844
0.000355222
0.000390745
0.000428236
0.00046993
0.000510884
0.000550508
0.000594717
0.000637044
0.00067701
0.000719138
0.000758668
0.000798035
0.000835434
0.000874437
0.000909574
0.000945028
0.000979699
0.0010137
0.00104679
0.00107953
0.00111169
0.00114301
0.00117311
0.0012017
0.00122839
0.00125264
0.00127392
0.00129175
0.00130711
0.00131512
0.00132583
0.00133219
0.00133527
0.00133655
0.00132903
0.00131368
0.00129158
0.00126252
0.00123383
0.00120517
0.0011764
0.001146
0.00109111
0.000967587
0.000778627
0.000567277
0.000385517
0.000233512
0.000130121
8.16079e-05
5.83462e-05
4.29109e-05
3.55954e-05
3.12206e-05
3.48614e-05
5.33624e-05
8.73352e-05
0.000128788
0.00016301
0.000181942
0.000153824
0.000114308
0.00013111
0.000151459
0.000193014
0.000266934
0.000381758
0.000436377
0.000504171
0.000583859
0.000667157
0.00076182
0.000836531
0.00091171
0.000964005
0.00102132
0.00107638
0.00111601
0.00115603
0.00119173
0.0012181
0.00124584
0.00126551
0.00128736
0.00130167
0.0013161
0.00132565
0.00133198
0.00133303
0.00133081
0.00131567
0.00131255
0.00129987
0.00129324
0.00128204
0.00127344
0.00126673
0.00125655
0.00124479
0.00123085
0.00121478
0.00119547
0.00117415
0.00115348
0.00112706
0.00110089
0.00107195
0.0010423
0.00101112
0.000980057
0.000949432
0.000918671
0.000888917
0.000859598
0.000830994
0.000805141
0.00078106
0.000757413
0.000736393
0.000717106
0.000701476
0.000687184
0.000680082
0.000671447
0.000664319
0.000661985
0.000659287
0.000656035
0.000653216
0.000651023
0.000649538
0.000648304
0.000647451
0.000648049
0.000649275
0.00065037
0.000656863
0.000659268
0.000659282
0.000664935
0.000664924
0.000672619
0.00066975
0.00067712
0.000672806
0.000682945
0.000679549
0.000680436
0.000680399
0.000689515
0.000685703
0.000691821
0.000692159
0.000684291
0.000670317
0.000655917
0.000631062
0.000612233
0.000570621
0.000550728
0.000467459
6.14466e-07
1.79407e-05
7.34853e-05
0.00012803
0.000177803
0.000222143
0.000259591
0.000288548
0.000310932
0.000327006
0.000338561
0.000348106
0.000358411
0.000371947
0.000390422
0.000415161
0.000446586
0.000484348
0.000527499
0.000575082
0.000625917
0.000678866
0.000734428
0.000789333
0.000843161
0.000896446
0.000947432
0.000995439
0.00104267
0.00108685
0.00112921
0.00117021
0.00120991
0.00124763
0.00128415
0.00131924
0.00135274
0.00138442
0.00141488
0.00144403
0.00147174
0.00149801
0.00152242
0.00154472
0.00156451
0.00158147
0.0015953
0.00160627
0.00161178
0.00162063
0.00162098
0.00161683
0.00160816
0.00158821
0.00157047
0.00154717
0.00151506
0.00147848
0.00143843
0.00139592
0.00135263
0.00130253
0.0012484
0.0011492
0.00092501
0.000720528
0.000466759
0.000323199
0.000206327
0.000120925
8.44897e-05
6.07048e-05
5.33126e-05
5.40905e-05
7.55917e-05
0.0001204
0.000164943
0.000199695
0.000145813
0.000158417
0.000187446
0.000247519
0.000348817
0.000501417
0.000608316
0.000728902
0.000831668
0.000946483
0.00105949
0.00117125
0.00127143
0.00136164
0.00143895
0.00150657
0.00156804
0.00162301
0.00167106
0.00171368
0.00175038
0.00178386
0.00181178
0.00183494
0.00185454
0.00186584
0.00188884
0.00190088
0.00190247
0.00190119
0.00191158
0.00190668
0.0018951
0.00189706
0.00187937
0.00187167
0.00184685
0.00183569
0.00181837
0.00179961
0.00177722
0.00175107
0.00172168
0.00168928
0.00165407
0.00161425
0.001572
0.00151576
0.00145977
0.00140423
0.00134935
0.00129506
0.00124174
0.00119038
0.00114163
0.00109622
0.00105472
0.00101687
0.000980786
0.00094259
0.000907068
0.000872759
0.000850682
0.00083322
0.000811113
0.000796729
0.000776168
0.000756517
0.00073823
0.000721942
0.000708616
0.000698739
0.000692038
0.000687855
0.000686071
0.000686833
0.000688525
0.000692435
0.000697136
0.000703718
0.000711004
0.00071938
0.000733513
0.000739737
0.00075193
0.000761589
0.000778319
0.000786451
0.00080245
0.00081016
0.000822312
0.00083434
0.000844581
0.000844837
0.000839893
0.000824915
0.000808378
0.000777475
0.000748396
0.000693975
0.00064489
0.000561626
9.78606e-07
2.9573e-05
0.00012064
0.00022143
0.000311085
0.000387461
0.000450339
0.000500097
0.000536443
0.000562274
0.000579338
0.000590629
0.000599722
0.000610233
0.000625306
0.000647356
0.000677583
0.000715961
0.000761471
0.00081256
0.000867427
0.000924597
0.000982555
0.00103943
0.00109431
0.00114686
0.00119649
0.00124333
0.00128644
0.00132675
0.0013647
0.00140067
0.00143488
0.00146743
0.00149856
0.00152825
0.00155649
0.00158321
0.00160858
0.00163291
0.00165617
0.00167749
0.00169707
0.00171471
0.00173016
0.00174322
0.00175367
0.00176179
0.00176431
0.00177213
0.00177145
0.0017641
0.00172595
0.00168101
0.00165145
0.0016344
0.00162273
0.001607
0.00156136
0.0015122
0.00146106
0.00140862
0.00135913
0.00130799
0.00122049
0.00104275
0.000837362
0.000615415
0.000423034
0.000282467
0.00017923
0.000125064
9.82293e-05
8.56593e-05
0.000113312
0.000168622
0.000236049
0.000172275
0.000200864
0.000256518
0.000357332
0.000513506
0.000689682
0.000802436
0.00093445
0.00106909
0.00120054
0.00133324
0.00145756
0.00157564
0.0016776
0.00177062
0.00185096
0.00192421
0.00198706
0.00204385
0.00209337
0.00213579
0.00217088
0.00221051
0.00223446
0.00226691
0.00228871
0.00229835
0.00232435
0.00233791
0.00234437
0.00234816
0.00233911
0.00233833
0.00234098
0.00234349
0.00233236
0.00230787
0.00229434
0.00228039
0.0022488
0.00222605
0.00219902
0.00216802
0.00213218
0.00206335
0.00199453
0.00192597
0.00185704
0.00178758
0.00171738
0.00164652
0.00157491
0.00150244
0.00142941
0.00135665
0.00128531
0.00121657
0.00115122
0.00108957
0.00103183
0.000977312
0.000927565
0.000880491
0.000838768
0.000799402
0.000763906
0.00073298
0.000706483
0.000685538
0.000667932
0.000653754
0.000642883
0.000634764
0.000629238
0.000626384
0.000624081
0.00062562
0.000627928
0.000632126
0.00063795
0.000645299
0.000653957
0.00066401
0.000679529
0.000689601
0.0007054
0.000716148
0.000730737
0.000744811
0.000760725
0.000777194
0.000788532
0.000802669
0.000813266
0.000816347
0.000816157
0.00080713
0.000797342
0.000774366
0.000752005
0.00070958
0.000670685
0.000603487
1.4082e-06
4.12443e-05
0.000162706
0.00030319
0.000431147
0.000541005
0.000631935
0.000704523
0.000759805
0.000800469
0.000829277
0.000848806
0.000862489
0.000874076
0.000887235
0.000905207
0.000929929
0.000962034
0.00100094
0.00104514
0.00109305
0.00114305
0.00119364
0.00124354
0.00129004
0.00133394
0.00137517
0.00141368
0.00145078
0.00148542
0.00151745
0.00154691
0.00157432
0.00159994
0.00162395
0.00164651
0.0016678
0.00168807
0.00170771
0.00172683
0.0017451
0.00176235
0.0017785
0.00179341
0.00180689
0.00181879
0.00182897
0.00183766
0.00184131
0.00185165
0.00185398
0.00184994
0.00184107
0.00182603
0.00180372
0.00177395
0.00173722
0.001694
0.00164524
0.00159206
0.00153581
0.00147789
0.00142068
0.00136471
0.00131234
0.00124161
0.00110062
0.000877113
0.000630109
0.000424127
0.000274305
0.000192377
0.000146954
0.000128706
0.000142532
0.000223967
0.000192321
0.000237371
0.000313253
0.000441511
0.000637894
0.0008042
0.000931395
0.00106286
0.00120541
0.00135118
0.00149763
0.00163861
0.00176883
0.00188884
0.00199307
0.00208686
0.00216882
0.00223985
0.0023003
0.00235453
0.00240186
0.00244403
0.00248628
0.00252032
0.00255728
0.00258115
0.00259182
0.00261202
0.00262957
0.00264304
0.00265103
0.00265721
0.00265824
0.00265692
0.0026541
0.00265444
0.00264986
0.00262709
0.0026171
0.00259133
0.00257093
0.00253791
0.00250973
0.00244309
0.00236698
0.002292
0.00221808
0.00214457
0.00207043
0.00199509
0.00191802
0.00183896
0.00175782
0.00167425
0.00158818
0.00150018
0.00141149
0.00132341
0.00123695
0.00115306
0.00107319
0.000996403
0.000924936
0.000857964
0.000796938
0.000748361
0.000707296
0.000673386
0.000647193
0.000625415
0.000607196
0.00059256
0.00058147
0.000573035
0.000567159
0.000563885
0.00056263
0.000563442
0.000566062
0.000570762
0.000577619
0.000584958
0.000594284
0.000605138
0.000617817
0.000630997
0.000645532
0.000660255
0.000675999
0.000691751
0.000707645
0.000723183
0.000736294
0.00074941
0.000762149
0.000770509
0.000776916
0.000776359
0.000775418
0.000763625
0.000750593
0.000721559
0.000692154
0.000640162
1.94849e-06
5.27619e-05
0.000196267
0.000367683
0.00052634
0.00066187
0.000773991
0.000865059
0.000938536
0.000995151
0.00103739
0.001068
0.00109012
0.0011071
0.00112226
0.00113839
0.00115766
0.00118129
0.00120955
0.00124205
0.00127772
0.00131527
0.00135351
0.00139145
0.00142925
0.00146517
0.00149861
0.00152956
0.00155815
0.00158443
0.00160862
0.00163108
0.00165196
0.00167152
0.00168974
0.00170667
0.00172236
0.00173678
0.00175062
0.00176645
0.00178251
0.00179828
0.00181372
0.00182878
0.00184336
0.00185734
0.00187049
0.001883
0.00189204
0.00190207
0.00191066
0.00191521
0.00191307
0.00190414
0.00188668
0.0018598
0.00182401
0.00178023
0.0017293
0.00167251
0.00161149
0.00154784
0.00148347
0.00142033
0.0013601
0.00130937
0.00124701
0.00112029
0.000904173
0.000639209
0.000411816
0.000281088
0.000213579
0.000170871
0.000227422
0.000230099
0.000272195
0.000345785
0.000480622
0.000696787
0.000872676
0.000999892
0.0011348
0.00127661
0.00143136
0.00159225
0.00174848
0.00189508
0.00202879
0.00214855
0.00225059
0.00234284
0.00242218
0.00249118
0.0025503
0.00260226
0.0026475
0.0026879
0.0027241
0.00275516
0.00278342
0.00280682
0.00282553
0.00284378
0.00285853
0.00287053
0.00287874
0.0028852
0.0028889
0.00289118
0.0028827
0.00288008
0.00285843
0.00284977
0.00282577
0.00280951
0.00277874
0.00275011
0.00267137
0.00259108
0.00251298
0.00243659
0.00236128
0.00228612
0.00221035
0.00213333
0.00205443
0.00197309
0.00188886
0.00180085
0.00170858
0.00161233
0.00151316
0.00141255
0.00131
0.00120664
0.00110533
0.00100748
0.000914361
0.000835393
0.000767019
0.000706625
0.0006579
0.000618252
0.0005876
0.000564288
0.000546553
0.00053284
0.000522818
0.000515111
0.000509912
0.000507397
0.000506937
0.00050797
0.000511242
0.000516687
0.000524498
0.000533641
0.00054391
0.000555
0.000567243
0.000581202
0.000596327
0.000612363
0.000629251
0.000646416
0.000664266
0.000681535
0.000699178
0.000716637
0.000735536
0.000749676
0.000764955
0.000773932
0.000782793
0.000782368
0.000777678
0.000759642
0.000738021
0.000695129
2.59685e-06
6.41752e-05
0.000225479
0.000418024
0.000598455
0.000754147
0.000883756
0.000988898
0.00107278
0.00113918
0.00118976
0.00122713
0.0012545
0.00127493
0.00129131
0.00130619
0.00132169
0.00133928
0.00135978
0.00138336
0.00140954
0.00143728
0.00146567
0.00149387
0.00152135
0.00154768
0.00157264
0.00159594
0.00161751
0.00163723
0.00165494
0.00167053
0.00168476
0.00170055
0.00171581
0.00173044
0.00174464
0.00175868
0.00177288
0.00178752
0.00180244
0.00181765
0.00183324
0.00184928
0.00186574
0.00188252
0.00189941
0.00191704
0.00193265
0.0019464
0.0019569
0.00196708
0.00197417
0.00197571
0.00196679
0.00194662
0.00191533
0.00187345
0.00182187
0.00176211
0.00169664
0.00162727
0.00155652
0.00148586
0.00141722
0.0013526
0.00130347
0.00124359
0.00111405
0.000886543
0.000609816
0.000410432
0.000313697
0.0002804
0.00029706
0.000314924
0.000378542
0.000485574
0.000693563
0.000908931
0.00103816
0.00117212
0.00131574
0.00146767
0.00163456
0.00180338
0.00196862
0.00211645
0.00224978
0.00237213
0.00247583
0.00256678
0.00264492
0.00271227
0.00276989
0.00281982
0.00286294
0.00290057
0.00293306
0.002961
0.00298497
0.00300454
0.00302034
0.00303333
0.00304286
0.00304953
0.00305297
0.00305383
0.00305173
0.00304526
0.00303271
0.00301762
0.00299861
0.00298222
0.00296063
0.0029404
0.00291211
0.00282293
0.00273816
0.0026568
0.00257839
0.00250221
0.00242749
0.00235332
0.00227882
0.00220312
0.0021252
0.00204432
0.00195981
0.00187028
0.00177472
0.00167205
0.00156343
0.0014503
0.00133455
0.00121858
0.0011017
0.000992632
0.000889657
0.000793602
0.000709715
0.000641697
0.000590851
0.000554168
0.000527443
0.000508122
0.000494009
0.000483424
0.000476122
0.000470345
0.000467069
0.000466519
0.000467112
0.000469545
0.000473568
0.000480331
0.00048776
0.00049781
0.00050946
0.000522586
0.000536933
0.000552532
0.000569017
0.000586638
0.000605373
0.00062502
0.000646636
0.000668532
0.000693243
0.000719224
0.000745878
0.00077031
0.0007944
0.000816395
0.000834592
0.000843955
0.000846632
0.000835766
0.000818653
0.000778862
3.33475e-06
7.52359e-05
0.000251389
0.000459462
0.000655174
0.000824441
0.000965219
0.0010792
0.00116997
0.00124235
0.00129864
0.00134087
0.00137208
0.00139504
0.00141231
0.00142625
0.00143882
0.00145153
0.00146536
0.00148072
0.00149759
0.00151577
0.00153484
0.00155422
0.00157343
0.00159198
0.00160928
0.00162474
0.00164076
0.00165707
0.00167254
0.00168705
0.00170086
0.00171433
0.0017272
0.00173953
0.00175155
0.00176348
0.00177561
0.00178822
0.0018015
0.00181565
0.00183091
0.00184757
0.00186577
0.00188553
0.00190677
0.00192999
0.00195282
0.00197886
0.00199204
0.00201156
0.00202803
0.00203866
0.00204226
0.00203181
0.00200768
0.00197056
0.00192133
0.0018612
0.00179204
0.00171691
0.0016403
0.00156318
0.00148653
0.00141262
0.00134599
0.00128966
0.00122346
0.00105948
0.000819048
0.000578063
0.000451192
0.000438044
0.0003565
0.000399629
0.000497143
0.000659658
0.000927519
0.00105245
0.00118524
0.0013266
0.0014762
0.001637
0.00181451
0.00199111
0.00215674
0.00230669
0.00244443
0.0025652
0.00266923
0.00275952
0.00283672
0.00290247
0.00295783
0.00300455
0.00304401
0.00307807
0.00310668
0.00313061
0.00314983
0.00316437
0.0031747
0.00318033
0.0031824
0.00318179
0.00317791
0.00317108
0.0031613
0.00314628
0.00312653
0.00310391
0.00308081
0.00305599
0.00303029
0.00299888
0.00290146
0.0028108
0.00272518
0.00264407
0.00256676
0.00249226
0.00241955
0.00234771
0.0022758
0.00220268
0.00212677
0.0020463
0.00196027
0.00186898
0.00177079
0.0016656
0.00155416
0.00143729
0.00131984
0.00119808
0.00107143
0.000941697
0.000815862
0.000708995
0.00062659
0.000566818
0.000525995
0.0004985
0.000479248
0.00046571
0.00045606
0.000448968
0.000444373
0.000440384
0.000439479
0.000440648
0.00044222
0.000446157
0.000451308
0.000460205
0.000467552
0.00047868
0.00049229
0.000507836
0.00052467
0.000542841
0.000562088
0.000583002
0.000605976
0.000631248
0.000660603
0.00069205
0.000728749
0.000768738
0.000809374
0.000848543
0.000884935
0.000916697
0.000942035
0.000956622
0.000960785
0.000949859
0.000932327
0.000889459
4.12016e-06
8.54722e-05
0.000273843
0.000493551
0.000700098
0.0008784
0.00102608
0.00114488
0.0012389
0.00131368
0.00137192
0.00141545
0.00144754
0.00147089
0.00148787
0.00150054
0.00151064
0.00151956
0.00152833
0.00153759
0.00154768
0.00155855
0.00156998
0.00158101
0.00159385
0.0016083
0.00162305
0.00163768
0.00165227
0.00166649
0.00167985
0.00169219
0.00170352
0.00171392
0.00172344
0.00173226
0.00174065
0.00174894
0.00175752
0.00176679
0.00177718
0.00178923
0.00180342
0.00182008
0.00183933
0.00186163
0.00188711
0.0019157
0.0019468
0.00198311
0.00201555
0.00203851
0.00206759
0.00209039
0.00210465
0.00210748
0.00209357
0.00206389
0.00201937
0.00196139
0.00189193
0.001814
0.00173228
0.00164956
0.0015665
0.00148479
0.00141002
0.0013389
0.00128793
0.00117917
0.00096726
0.000768447
0.000599691
0.000444952
0.000431202
0.000483788
0.000630388
0.000860849
0.00105456
0.00118197
0.00131819
0.0014647
0.00161942
0.00178743
0.00197198
0.00215016
0.00231747
0.00247101
0.00260741
0.00272662
0.00282924
0.00291711
0.00299122
0.00305293
0.00310353
0.00314555
0.00318008
0.00321111
0.00323616
0.0032567
0.00327175
0.00328152
0.00328613
0.00328601
0.0032819
0.00327447
0.00326367
0.00324965
0.00323146
0.00320823
0.00318164
0.0031542
0.00312513
0.00309382
0.00301363
0.00290843
0.0028112
0.00272076
0.00263643
0.00255751
0.00248312
0.00241221
0.00234331
0.00227518
0.00220565
0.00213463
0.00206159
0.00198509
0.00190499
0.00182127
0.00173112
0.00163317
0.00152523
0.00140632
0.00127517
0.00113086
0.000976689
0.000830794
0.000707584
0.000613707
0.000547886
0.000503581
0.000475819
0.000457927
0.000445728
0.000437098
0.000431155
0.000426619
0.00042376
0.000421099
0.000422556
0.000424183
0.000427164
0.000432238
0.000439228
0.000449403
0.000456388
0.000468755
0.000484993
0.000503948
0.000524633
0.000547193
0.000571756
0.000599415
0.000631163
0.000667552
0.000710959
0.000759552
0.000814576
0.000874549
0.000934579
0.000989577
0.00103753
0.00107561
0.00110353
0.00111345
0.00110623
0.00108382
0.00105999
0.0010085
4.89725e-06
9.43088e-05
0.000292083
0.000520103
0.000734084
0.000918262
0.00107006
0.00119132
0.00128653
0.00136182
0.00142001
0.00146305
0.00149437
0.00151666
0.00153221
0.00154287
0.00155015
0.00155519
0.0015587
0.0015619
0.00156786
0.00157554
0.00158448
0.0015945
0.00160583
0.00161822
0.00163108
0.00164395
0.00165647
0.00166831
0.00167865
0.0016875
0.00169493
0.00170102
0.0017059
0.00170984
0.0017132
0.00171642
0.00172008
0.00172477
0.0017311
0.0017396
0.0017509
0.00176548
0.0017834
0.00180712
0.00183623
0.0018706
0.0019108
0.00195354
0.00200279
0.00204458
0.00208388
0.00212245
0.00215169
0.00216992
0.00217025
0.00215167
0.00211489
0.00206137
0.00199343
0.00191446
0.00182953
0.00174154
0.00165247
0.00156447
0.00148171
0.00140314
0.00134324
0.00123941
0.00106135
0.0008948
0.000606775
0.000501244
0.000503747
0.000608375
0.000797615
0.00105534
0.00116852
0.00129684
0.00143518
0.00158501
0.00174356
0.0019175
0.00210298
0.00228495
0.00245428
0.00260774
0.002743
0.00286029
0.00296039
0.00304458
0.00311367
0.00316846
0.0032125
0.00325252
0.00328772
0.00331662
0.00333834
0.003354
0.00336368
0.0033677
0.0033665
0.00336058
0.00335045
0.00333645
0.00331878
0.00329635
0.00326937
0.00323859
0.00320669
0.00317149
0.00309117
0.00297018
0.00285903
0.00275825
0.00266549
0.00257995
0.0025008
0.00242698
0.00235683
0.0022896
0.00222523
0.0021624
0.00210028
0.00203788
0.00197536
0.00191036
0.00184109
0.00176468
0.00167693
0.00157478
0.00145544
0.00131887
0.00116296
0.000998675
0.00084248
0.000708634
0.000605802
0.000533689
0.000487835
0.000460239
0.000443871
0.000432845
0.000425195
0.000419263
0.000415804
0.000412503
0.000410756
0.000409731
0.000412944
0.000414939
0.000419795
0.000426314
0.000434544
0.000443604
0.000451583
0.000466779
0.000487516
0.000511816
0.000538485
0.000568106
0.000601551
0.000640568
0.000686739
0.000739887
0.000801476
0.000868821
0.000940858
0.0010168
0.00108957
0.00115167
0.00119906
0.0012195
0.00123991
0.00124013
0.00124221
0.0012103
0.00117662
0.00111357
5.59088e-06
0.000101228
0.000305441
0.000538387
0.000756877
0.000944653
0.00109894
0.00122162
0.00131734
0.00139255
0.00145009
0.0014921
0.00152207
0.00154266