/*--------------------------------*- C++ -*----------------------------------*\
| =========                 |                                                 |
| \\      /  F ield         | OpenFOAM: The Open Source CFD Toolbox           |
|  \\    /   O peration     | Version:  4.x                                   |
|   \\  /    A nd           | Web:      www.OpenFOAM.org                      |
|    \\/     M anipulation  |                                                 |
\*---------------------------------------------------------------------------*/
FoamFile
{
    version     2.0;
    format      ascii;
    class       volScalarField;
    location    "100";
    object      omega;
}
// * * * * * * * * * * * * * * * * * * * * * * * * * * * * * * * * * * * * * //

dimensions      [0 0 -1 0 0 0 0];

internalField   nonuniform List<scalar> 
12225
(
38636.5
41462.7
43118.1
43943.1
44191
44141.1
43985.6
43712.8
43418.5
43136.7
42874.3
42634
42426.3
42232.1
42085.9
41929.6
41852.9
41729.1
530.37
6726.02
8972.94
11402.7
12881.7
13807.7
14415.2
14810
15060.8
15281.5
15483.4
15711.5
15902.5
16107.8
16248.7
16395
16433.6
16462.3
624.906
1156.6
1655.72
2233.85
2730.75
3164.79
3471.75
3776.8
3995.94
4302.48
4524.95
4816.43
5013.61
5272.06
5429.81
5648.93
5759.22
5923.82
485.799
581.351
693.211
834.994
966.02
1108.62
1213.81
1337.14
1421.95
1538.12
1615.68
1723.96
1790.22
1888.14
1940.81
2026.73
2063.69
2136.56
436.399
477.784
507.161
544.323
579.113
627.741
665.378
713.712
747.773
792.989
823.368
865.664
891.924
930.963
952.556
987.927
1004.15
1036.04
435.672
444.757
451.784
461.852
470.665
486.698
499.503
518.139
531.965
550.885
564.168
582.56
594.59
612.118
622.399
638.897
646.912
662.357
438.089
437.935
438.4
439.219
440.778
443.945
446.716
452.289
456.577
463.413
468.357
475.73
480.744
488.263
492.913
500.334
504.253
511.398
438.79
437.093
435.645
434.662
433.786
433.812
433.908
434.49
435.367
437.216
438.684
441.37
443.206
446.313
448.247
451.575
453.35
456.811
438.944
436.975
435.046
433.424
431.855
430.668
429.61
428.829
428.163
427.819
427.759
427.892
428.147
428.759
429.217
430.162
430.723
431.937
438.977
436.903
434.881
433.026
431.248
429.664
428.172
426.848
425.608
424.542
423.547
422.776
421.976
421.471
420.847
420.599
420.127
420.103
438.987
436.849
434.794
432.865
431.016
429.304
427.677
426.161
424.721
423.399
422.118
420.997
419.842
418.927
417.863
417.145
416.161
415.572
438.99
436.817
434.735
432.774
430.897
429.133
427.462
425.873
424.374
422.95
421.593
420.338
419.085
418.005
416.827
415.911
414.803
413.991
438.991
436.799
434.696
432.719
430.824
429.037
427.341
425.724
424.199
422.735
421.354
420.043
418.771
417.616
416.423
415.415
414.298
413.39
438.989
436.79
434.67
432.688
430.775
428.983
427.264
425.639
424.094
422.616
421.221
419.885
418.61
417.417
416.231
415.176
414.071
413.118
438.99
436.786
434.655
432.669
430.746
428.949
427.217
425.588
424.029
422.545
421.14
419.792
418.514
417.302
416.121
415.04
413.945
412.968
438.99
436.785
434.646
432.659
430.727
428.93
427.188
425.556
423.988
422.501
421.089
419.735
418.454
417.228
416.053
414.951
413.866
412.871
438.988
436.784
434.638
432.653
430.714
428.919
427.169
425.538
423.962
422.474
421.054
419.696
418.411
417.176
416.003
414.888
413.808
412.799
438.99
436.782
434.639
432.652
430.713
428.917
427.165
425.534
423.953
422.465
421.04
419.68
418.392
417.152
415.978
414.854
413.778
412.759
438.988
436.788
434.64
432.66
430.715
428.926
427.167
425.542
423.954
422.471
421.039
419.682
418.388
417.148
415.972
414.843
413.769
412.744
438.991
436.784
434.644
432.657
430.72
428.925
427.173
425.543
423.96
422.472
421.045
419.682
418.393
417.146
415.977
414.84
413.774
412.742
438.989
436.788
434.647
432.667
430.726
428.938
427.183
425.56
423.976
422.495
421.067
419.711
418.426
417.182
416.022
414.886
413.835
412.805
438.987
436.793
434.657
432.685
430.745
428.968
427.217
425.611
424.036
422.573
421.166
419.831
418.578
417.36
416.247
415.14
414.148
413.151
438.988
436.804
434.689
432.709
430.808
429.049
427.37
425.82
424.35
422.984
421.716
420.522
419.449
418.409
417.514
416.609
415.866
415.09
438.962
436.886
434.774
432.827
431.131
429.622
428.356
427.257
426.372
425.605
425.075
424.663
424.444
424.335
424.376
424.447
424.726
424.868
438.931
437.856
435.59
434.273
433.902
434.168
435.026
436.486
438.62
440.658
443.335
445.823
448.888
451.601
454.858
457.593
460.917
463.536
442.22
449.289
443.776
448.081
453.735
462.719
473.768
484.29
496.169
506.929
518.818
529.253
540.735
550.475
561.316
570.155
580.293
588.141
498.501
490.662
497.25
526.081
566.081
605.833
648.066
685.949
725.413
759.411
795.166
824.828
856.717
882.158
910.473
932.085
957.35
975.661
902.928
831.542
882.212
1024.12
1183.98
1332.33
1476.68
1601.28
1722.72
1822.86
1922.7
2000.45
2081.98
2141.51
2209.04
2255.17
2312.65
2350
3277.35
3227.06
3839.69
4576.03
5253.71
5824.11
6299.88
6681.14
6998.7
7249.33
7459.26
7617.28
7761.43
7861.72
7971.64
8044.21
8147.11
8212.63
20977.7
22181.6
23103
23777.9
24250
24571
24772.9
24895.5
24969.6
24997.9
24991.3
24967.4
24923.5
24862.4
24791.7
24721.3
24652.9
24586.2
11473.2
2551.42
2611.96
2690.6
2773.17
2861.68
2941.88
3008.94
3066.88
3113.02
3150.8
3162.56
3257.4
3310.96
3396.59
3469.32
3551.42
3646.2
3753.36
3873.72
4009.18
4155.39
4313.91
4474.65
4643.71
4807.78
4976.2
5134.02
5289.31
5432.32
5574.11
5702.69
5832.48
5954.14
6078.48
6197.66
6316.11
6426
6538.39
6646.2
6753.54
6843.89
6927.83
7013.6
7092.87
7162.62
7201.64
7241.16
7301.54
7322.72
7310.12
7247.91
7204.4
7179.75
7176.07
6967.4
6674.37
6293.72
5827.95
5354.1
4919.31
4556.26
4279.45
4055.01
3855.47
3671.85
3493.82
3327.7
3186.41
3040.32
2948.87
2872.62
2842.54
2848.41
2944.16
3122.94
3397.41
3649.84
3703.1
3563.34
3423.42
3479.59
3748.98
4113.75
4979.37
6052.95
6558.79
7243.5
7385.66
7847.95
7950.38
8119.79
8205.69
8289.19
8352.86
8395.6
8416.93
8429.76
8428.12
8429.34
8414.59
8398.24
8376.96
8347.9
8312.06
8277.95
8239.82
8206.42
8156.39
8104.11
8043.8
7969.06
7904.22
7817.3
7745.52
7671.07
7597.79
7531.04
7454.99
7387.89
7313.42
7241.73
7168.68
7090.78
7014.68
6937.17
6862.8
6784.1
6707.4
6632.43
6558.54
6486.2
6413.53
6347.66
6282.81
6223.07
6168.58
6119.28
6071.39
6028.18
5991.85
5955.95
5919.78
5887.82
5857.04
5831.78
5804
5779.99
5762.81
5748.4
5733.96
5725.62
5723.06
5736.47
5802.97
5880.14
5956.88
6020.52
6084.1
6135.53
6219.25
6279.38
6362.33
6455.96
6526
6615.7
6672.22
6769.55
6789.06
6832.03
6868.46
6905.6
6965.36
6942.08
6945
6972.58
6979.63
6917.92
6894.72
6709.25
11489.1
2010.16
1584.48
1603.72
1632.62
1651.75
1663.69
1668.5
1690.6
1712.22
1740.22
1772.01
1815.74
1859.15
1906.64
1949.1
1994.25
2038.15
2083.84
2128.99
2176.45
2224.7
2258.44
2241.63
2278.73
2275.2
2264.52
2249.08
2229
2206.95
2150.97
2164.16
2115.53
2127.81
2130.14
2138.01
2147.33
2163.74
2179.9
2195.27
2210.3
2223.6
2235.51
2246.33
2256.73
2265.6
2270.69
2275.77
2279.85
2278.84
2269.35
2244.14
2207.82
2175.34
2154.6
2128.44
2098.4
2049.96
1951.37
1829.08
1783.29
1798.11
1901.42
2033.5
1931.34
1913.2
1917.95
2152.56
2087.11
2196.61
2235.96
2191.43
2098.91
1969.59
1914.19
1877.37
1874.04
1858.16
1914.32
1871.65
1829
2048.41
3493.2
5361.04
5583.84
5487.7
5248.09
5301.56
4992.88
4667.61
4006.9
3934.53
3570.19
3617.79
3451.56
3121.87
3067.96
3001.47
2826.22
2849.69
2698.09
2696.75
2567.19
2564.89
2480.36
2476.52
2460.83
2443.05
2425.57
2409.61
2390.6
2368.62
2349.36
2325.87
2306.72
2287.97
2270.37
2254.33
2237.11
2221.95
2205.33
2188.81
2170.25
2155.6
2139.94
2125.33
2111.42
2098.77
2084.37
2068.6
2053.89
2041.63
2028.98
2019.34
2009.05
1999.62
1996.1
1994.29
1998.24
1990.57
1996.41
1988.69
1989.69
1994.68
1988.31
1991.83
2000.4
2002.02
2006.37
2011.53
2018.64
2026.34
2033.52
2037.87
2053.61
2069.99
2092.96
2099.76
2114.98
2132.6
2153.14
2170.31
2190.43
2214.17
2229.72
2247.47
2260.28
2278.76
2290.11
2302.71
2311.19
2317.84
2327.52
2331.32
2337.53
2343.7
2351.42
2370.22
2387.95
2679.96
11522.5
1888.7
1190.59
1140.31
1146.43
1161.49
1186.49
1208.7
1239.58
1274.87
1312.79
1349.44
1382.33
1409.2
1436.53
1460.25
1480.72
1496.27
1502.84
1506.64
1508.16
1506.62
1494.53
1486.56
1483.25
1468.44
1459
1454.48
1445.49
1441.91
1438.88
1439.58
1438.83
1445.17
1452.09
1461.1
1471.95
1484.58
1498.03
1512.07
1526.66
1541.54
1556.46
1571.01
1585.1
1598.47
1610.8
1620.13
1628.11
1632.38
1631.15
1623.37
1607.4
1592.21
1576.83
1559.71
1540.86
1512.19
1475.64
1430.33
1376.95
1344.22
1307.56
1295.76
1299.43
1305.36
1411.6
1644.08
1716.75
1702.75
1792.88
1788.16
1735.2
1623.24
1565.41
1588.88
1717.49
1888.23
2133.59
2541.37
3457.74
4472.27
4451.03
4161.81
3773.88
3059.84
2901.91
2730
2561.39
2417.36
2266.9
2183.11
2097.24
2056.05
2000.48
1946.87
1917.79
1885.46
1857.84
1840.76
1818.54
1807.62
1791.84
1784.42
1773.29
1766.81
1760.76
1754.71
1748.5
1749.22
1740.49
1741.63
1732.86
1724.71
1716.17
1706.63
1697.53
1688.18
1678.6
1669.31
1660.53
1651.65
1638.45
1629.53
1618.1
1607.8
1596.89
1586.36
1575.09
1562.83
1551.23
1539.71
1529.6
1521.61
1512.99
1506.15
1503.86
1503.47
1506.39
1510.1
1518.25
1516.51
1523.2
1531.79
1532.87
1536.17
1541.56
1546.72
1551.73
1555.2
1557.99
1559.89
1559.02
1556.1
1556.82
1550.43
1551.83
1551.51
1546.78
1540.88
1536.77
1532.48
1528.8
1526.48
1522.57
1519.36
1514.22
1510.55
1506.47
1503.08
1499.5
1495.13
1497.94
1497.41
1497.12
1498.81
1497.15
1513.62
1509.35
1609.56
11569.1
1930.48
1051.46
915.489
887.611
884.276
893.801
915.505
942.236
975.121
1012.57
1051.78
1089.84
1124.02
1153.12
1175.33
1190.67
1199.77
1204.49
1205.73
1205.19
1203.69
1199.57
1197.26
1196.52
1195.77
1197.1
1200.84
1204.47
1210.64
1218.24
1226.96
1237.16
1249.57
1263.6
1279.4
1297.08
1316.62
1337.23
1358.57
1380.4
1402.13
1423.59
1444.31
1463.93
1482.01
1498.18
1511.9
1522.08
1527.8
1531.54
1530.81
1524.94
1515.25
1502.3
1486.01
1466.13
1441.44
1411.6
1376.48
1335.95
1296.51
1250.67
1227.07
1267.39
1239.31
1344.32
1295.18
1321.47
1468.93
1465.84
1516.19
1444.04
1421.9
1505.9
1696.74
2050.28
2470.73
3087.37
3888.35
4017.93
3558.42
2941.07
2635.06
2375.34
2153.2
2058.13
1964.08
1887.83
1818.43
1766.87
1724.19
1692.88
1667.83
1645.81
1627.29
1612.72
1600.66
1591.49
1582.84
1577.02
1573.73
1571.86
1575.33
1567.38
1566.79
1568.92
1576.05
1568.45
1570.4
1577.69
1570.55
1577.46
1573.56
1582.51
1577.41
1574.46
1569.65
1564.75
1559.51
1553.84
1547.57
1540.08
1533.37
1525.48
1517.59
1509.12
1500.46
1491.3
1481.53
1471.77
1461.54
1452.25
1444.68
1437.14
1430.95
1429.3
1428.91
1433.48
1446.15
1450.28
1453.03
1469.7
1475.74
1479.82
1482.62
1486.18
1488.7
1489.66
1488.34
1484.5
1478.59
1471.2
1460.77
1450.17
1437.21
1423.77
1409.55
1388.32
1368.89
1351.95
1335.51
1319.58
1304.17
1288.89
1274.54
1259.86
1246.47
1233
1221.56
1210
1204.05
1205.92
1199.51
1202.5
1203.63
1205.14
1205.97
1206.15
1249.54
11617.7
2052.2
1044.18
827.467
760.197
736.885
733.261
740.906
757.979
780.688
808.542
840.094
873.51
906.594
937.395
964.131
986.097
1003.41
1017.12
1028.24
1038.02
1046.92
1055.65
1065.15
1075.59
1086.64
1098.6
1111.17
1125.33
1140.35
1156.25
1172.95
1190.68
1209.54
1229.58
1250.83
1273.35
1297.04
1321.6
1346.49
1371.35
1396.41
1420.98
1444.61
1466.86
1487.26
1505.33
1520.51
1532.49
1539.41
1544.17
1546.23
1543.39
1536.54
1525.74
1511.05
1492.65
1470.45
1443.76
1411.76
1373.85
1330.89
1280.72
1226.65
1196.75
1194.1
1163.54
1148.16
1142.7
1152.65
1207.12
1306.26
1409.1
1526.33
1681.3
1969.94
2382.9
3114.22
3769.24
3561.1
2903.68
2471.54
2169.24
2001.69
1867.84
1777.21
1720.28
1669.05
1628.72
1592.46
1567.84
1546.14
1530.65
1516.79
1507.5
1499.73
1494.49
1491.98
1492.4
1487.86
1492.04
1489.32
1491.94
1500.96
1497.8
1500.64
1505.63
1510.48
1521.89
1524.57
1526.64
1524.31
1528.4
1539.05
1539.81
1538.04
1545.11
1543.25
1541.09
1538.42
1534.97
1530.88
1526.09
1521.08
1515.32
1509.18
1502.51
1495.47
1488.06
1480.28
1472.59
1464.79
1457.19
1450.09
1443.19
1438.32
1438.55
1437.89
1441.45
1457.79
1463.66
1470
1479.81
1485.82
1488.52
1488.23
1487.55
1485.13
1481.18
1474.08
1463.81
1450.31
1434.18
1414.11
1393.65
1369.77
1345.56
1323.11
1300.21
1277.2
1254.5
1231.89
1209.93
1188.68
1167.8
1148.67
1129.37
1112.38
1095.09
1079.67
1065.56
1064.4
1063.14
1057.12
1057.09
1057.33
1057.02
1059.55
1054.1
1079.68
11678.7
2200.79
1089.77
822.398
726.195
685.121
668.957
666.672
673.756
687.145
705.297
727.568
753.041
780.555
808.868
836.52
862.663
886.902
909.462
930.882
951.615
971.87
991.913
1011.81
1033.07
1054.46
1075.82
1097.08
1117.41
1137.8
1158.74
1180.49
1203.07
1226.55
1251.06
1276.61
1303.19
1330.55
1358.33
1386.19
1414.1
1441.75
1468.72
1494.52
1518.7
1540.67
1559.83
1575.56
1587.68
1593.98
1598.56
1599.63
1595.91
1588.83
1578.97
1566.01
1549.67
1529.71
1505.21
1475.3
1439.3
1396.88
1347.6
1293.35
1233.16
1180.95
1150.7
1146.8
1173.86
1213.39
1265.51
1373.94
1521.93
1704.87
1984.55
2342.86
2922.75
3435.31
3225.66
2648.16
2202.95
1955.41
1802.47
1708.36
1637.26
1588.92
1553.06
1522.65
1498.88
1478.99
1466.09
1455.57
1448.57
1444.62
1443.85
1443.87
1445.45
1447.91
1448.33
1451.79
1452.1
1458.46
1470.6
1475.98
1481.31
1487.06
1494.04
1500.03
1505.63
1514.74
1518.52
1521.01
1522.62
1532.69
1532.85
1539.39
1539.77
1544.83
1544.16
1544.04
1542.38
1540.06
1537.05
1533.47
1529.28
1524.56
1519.35
1513.7
1507.71
1501.49
1495.13
1488.48
1481.59
1474.57
1467.58
1462.19
1455.56
1452.68
1454.73
1464.42
1472.41
1475.99
1478.52
1478.84
1471.68
1457.84
1446.83
1434.09
1418.73
1400.74
1380.61
1358.44
1334.89
1310.22
1285.18
1259.96
1234.78
1210.09
1185.54
1161.49
1138.09
1115.29
1093.24
1072.53
1052.03
1033.65
1015.28
998.536
983.766
965.582
963.643
951.547
953.711
941.875
946.232
945.688
946.317
941.753
939.292
957.563
11767.6
2347.43
1168.42
855.031
735.851
682.835
658.792
649.703
648.972
654.996
666.245
681.808
701.021
723.215
747.735
773.975
801.385
829.496
858.07
886.816
915.676
944.519
973.254
1001.64
1028.91
1055.73
1082.27
1108.42
1134.2
1159.76
1185.31
1210.93
1236.93
1263.41
1290.76
1319.14
1348.73
1379.64
1411.36
1441.64
1471.69
1501.49
1530.63
1558.54
1584.63
1608.21
1628.61
1644.97
1657.54
1663.33
1668.65
1666.52
1661.08
1652.11
1640.91
1628.12
1612.96
1594.4
1571.55
1543.62
1509.73
1469.22
1421.46
1366.46
1305.76
1235.05
1168.28
1124.44
1105.99
1141.94
1222.9
1378.22
1583.16
1862.47
2184.27
2602.67
3082.81
3033.96
2543.05
2093.02
1831.57
1691.87
1605.47
1550.34
1508.07
1478.31
1455.11
1436.29
1422.09
1412.09
1408.04
1404.79
1404.55
1406.08
1409.6
1413.95
1419.36
1425.09
1431.13
1438.15
1445.22
1453.38
1462.51
1470.45
1478.69
1486.69
1495
1502.46
1509.58
1515.75
1524.07
1527.11
1538.05
1540.87
1549.51
1551.1
1557.95
1561.06
1560.89
1563.67
1562.76
1561.14
1558.66
1555.52
1551.74
1547.3
1542.29
1536.72
1530.72
1524.61
1518.3
1511.59
1504.22
1495.98
1486.2
1475.07
1466.06
1458.88
1451.65
1445.29
1439.1
1431.52
1421.52
1408.65
1392.58
1373.55
1351.96
1328.49
1303.4
1277.08
1250.19
1222.67
1195.22
1167.95
1141.6
1116.02
1091.45
1067.9
1044.84
1022.96
1002.09
982.103
963.209
945.747
928.428
913.099
897.596
883.789
871.603
856.856
855.277
845.609
848.037
843.179
845.248
836.438
842.714
843.956
839.062
851.003
11880.2
2483.08
1249.61
903.986
766.192
701.375
669.3
654.841
650.859
653.483
661.65
674.427
691.045
710.969
733.798
759.152
786.662
815.902
846.492
877.977
910.076
942.599
975.319
1007.92
1040.08
1071.5
1102.06
1131.78
1160.79
1189.36
1217.96
1247.06
1276.54
1304.55
1333
1362.25
1392.43
1423.44
1455.15
1487.28
1519.86
1552.55
1584.88
1616.2
1645.83
1672.96
1696.81
1715.67
1731.45
1739.21
1748.69
1748.45
1741.12
1728.46
1714.32
1699.09
1682.38
1663.27
1640.86
1614.25
1581.99
1543.34
1497.07
1443.03
1381.46
1313.83
1232.53
1154.96
1105.76
1094.61
1162.4
1345.89
1580.15
1906.52
2261.03
2700.36
2861.93
2501.1
2074.9
1782.97
1626.76
1541.87
1487.36
1452.12
1424.76
1406.05
1388.61
1378.63
1372.26
1366.95
1366.92
1368.79
1372.83
1378.33
1385.15
1392.72
1400.97
1409.61
1418.72
1428.25
1438.07
1448.48
1459.22
1469.87
1480.72
1491.4
1502.04
1512.28
1522.33
1532.15
1541.78
1550.33
1559.22
1565.7
1572.47
1575.98
1581.33
1586.78
1587.53
1589.41
1588.63
1586.71
1583.72
1580.02
1575.8
1570.68
1565.05
1558.62
1551.16
1543.79
1535.95
1527.36
1517.6
1506.27
1494.25
1480.87
1464.02
1445.36
1426.6
1405.73
1383.62
1359.2
1333.07
1305.72
1277.71
1249.3
1220.77
1192.31
1163.79
1135.27
1107.4
1079.69
1052.82
1026.58
1002.01
978.339
955.831
934.965
914.567
896.14
878.732
861.857
847.031
832.787
818.374
805.11
791.96
780.465
769.131
760.418
748.244
751.125
751.194
750.524
749.609
748.05
743.564
742.024
744.361
758.169
12011.2
2604.3
1325.29
954.19
801.637
727.813
689.994
671.705
665.083
665.522
671.49
682.293
697.138
715.544
737.187
761.756
788.975
818.502
850.012
883.111
917.43
952.44
987.708
1022.83
1057.47
1091.41
1124.77
1157.78
1188.79
1218.08
1246.78
1275.28
1303.81
1332.45
1361.82
1392.19
1423.74
1456.52
1490.53
1525.65
1561.76
1598.48
1635.31
1671.55
1706.4
1738.88
1768
1791.99
1811.72
1821.91
1833.38
1835.8
1829.73
1817.34
1799.03
1780.34
1760.59
1739.09
1714.99
1687.54
1656.04
1618.88
1573.24
1519.57
1458.5
1390.1
1314.85
1231.23
1150.5
1120.22
1149.08
1315.27
1526.99
1810.14
2364.63
2640.32
2477.05
2096.06
1784.98
1599.1
1500.93
1443.56
1407.72
1383.1
1364.13
1350.54
1341.31
1336.44
1332.98
1333.25
1336.87
1342.36
1349.59
1358.17
1367.97
1378.6
1389.78
1401.02
1412.56
1424.31
1436.37
1448.91
1461.75
1475.23
1488.79
1502.01
1515.05
1527.76
1540.07
1551.99
1563.29
1574.03
1584.33
1593.69
1601.17
1607.7
1612.16
1615.23
1616.91
1617.72
1616.12
1612.86
1608.19
1602.77
1596.87
1589.5
1581.04
1571.6
1561.08
1552.37
1543.26
1533.15
1521.55
1507.97
1490.15
1467.22
1439.23
1405.59
1369.25
1330.21
1291.16
1253.48
1217.92
1184.43
1152.75
1122.38
1093.14
1064.81
1037.01
1009.75
983.846
958.254
933.757
909.944
888.621
867.624
846.991
828.802
811.201
794.243
778.519
764.03
750.563
737.925
725.838
714.654
704.024
694.823
686.533
680.332
673.246
674.293
674.394
674.224
672.703
671.644
672.405
676.73
680.233
691.161
12151
2710.3
1392
1000.16
835.68
754.871
712.831
692.034
683.916
683.344
688.521
698.776
713.12
731.01
752.122
776.193
803.027
832.369
863.945
897.369
932.237
968.102
1004.59
1041.67
1077.34
1111.18
1143.7
1175.01
1205.03
1234.08
1262.76
1291.46
1320.58
1350.4
1381.32
1413.55
1447.32
1482.71
1519.77
1558.43
1598.6
1639.95
1682.02
1724.1
1765.3
1804.49
1840.4
1871.72
1897.04
1912.16
1922.88
1930.21
1925.99
1914.29
1896.3
1873.69
1850.62
1826.05
1799.28
1769.5
1735.92
1697.23
1650.86
1596.06
1534.03
1464.91
1387.72
1308.79
1211.58
1162.76
1168.9
1293.06
1569.42
1965
2335.82
2400.32
2133.67
1820.41
1601.58
1478.67
1412.2
1371.41
1346.4
1328.97
1315.86
1308.65
1304.27
1302.34
1303.88
1308.51
1315.81
1324.96
1335.75
1347.91
1361.3
1375.18
1389.47
1402.7
1416.19
1429.49
1443.18
1457.31
1471.96
1486.99
1502.14
1517.02
1531.58
1545.7
1559.3
1572.26
1584.53
1596.15
1606.89
1616.38
1624.18
1629.72
1632.51
1633.75
1634.38
1633.59
1630.81
1625.85
1620.27
1614.18
1606.87
1597.52
1587.4
1576.1
1562.35
1550.81
1538.64
1525.01
1509.14
1489.57
1463.91
1428.57
1383.88
1331.59
1277.92
1226.6
1180.18
1138.96
1102.4
1069.31
1038.76
1009.95
982.529
956.271
930.787
906.073
883.214
859.951
838.99
818.39
798.289
778.798
761.069
744.232
728.944
714.851
701.935
689.972
679.13
668.73
659.492
651.438
644.48
638.959
634.441
631.083
628.574
626.788
627.707
627.479
627.967
630.373
632.521
637.222
641.803
647.936
12288.1
2801.19
1449.16
1040.24
866.024
779.69
734.495
711.993
703.058
702.12
707.236
717.627
732.152
750.18
771.345
795.407
822.236
851.718
883.83
917.982
952.205
986.689
1021.29
1055.59
1088.99
1121.22
1152.39
1182.62
1212.15
1241.3
1270.52
1300.17
1330.6
1362.09
1394.95
1429.38
1465.58
1503.71
1543.87
1586.08
1630.35
1676.49
1724.18
1772.77
1821.36
1868.65
1913.08
1952.92
1984.98
2010.75
2023.77
2033.87
2031.92
2021.29
2003.47
1978.53
1951.75
1923.66
1893.66
1860.88
1824.36
1782.67
1733.27
1675.83
1611.02
1538.85
1459.33
1377.66
1277.47
1225.29
1223.65
1336.82
1559.76
2032.25
2233.39
2139.92
1874.54
1633.86
1479.29
1393.65
1345.87
1315.48
1297.43
1285.25
1278.3
1274.1
1273.22
1275.39
1280.93
1289.37
1300.29
1313.18
1327.93
1344.57
1362.05
1377.89
1392.77
1407.51
1422.74
1438.12
1453.82
1469.81
1486.08
1502.44
1518.79
1534.84
1550.49
1565.54
1579.91
1593.35
1605.74
1617.07
1626.69
1634.33
1639.41
1641.69
1641.68
1641.83
1640.33
1637.73
1633.38
1626.46
1617.34
1608.61
1598.56
1584.76
1571.01
1558.28
1544.83
1530.75
1515.49
1498.24
1477.56
1450.28
1412.67
1360.46
1296.26
1229.95
1169.03
1115.42
1070.24
1031.9
998.642
968.579
941.066
915.131
890.435
866.821
844.618
823.432
801.632
780.714
760.796
742.29
725.31
709.514
694.953
681.611
669.313
658.411
648.63
641.395
633.56
628.335
624.241
619.154
615.588
612.697
610.176
608.661
607.391
607.005
606.664
606.853
607.157
609.181
611.035
614.233
618.138
620.876
12408.1
2877.72
1497.8
1074.71
892.406
801.507
753.752
729.931
720.472
719.469
724.898
735.798
750.931
769.611
791.477
816.358
844.068
872.75
902.934
934.482
966.791
999.318
1031.48
1063.21
1094.58
1125.38
1155.83
1185.49
1214.74
1243.9
1273.77
1304.56
1336.44
1369.6
1404.27
1440.65
1478.95
1519.36
1562.12
1607.38
1655.33
1706.08
1759.55
1815.31
1872.5
1929.67
1984.78
2035.36
2078.85
2113.15
2132.52
2146.66
2147.61
2138.19
2120.16
2095.25
2063.29
2030.95
1997.06
1960.68
1920.68
1875.26
1822.69
1762.34
1694.07
1618.09
1535.21
1450.19
1353.71
1307.65
1302.92
1387.79
1688.67
1978.44
2065.94
1915.1
1687.85
1505.57
1392.89
1329.7
1293.88
1270.42
1257.28
1249.99
1246.07
1245.24
1247.54
1253.07
1261.99
1273.79
1288.02
1304.39
1322.91
1343.09
1361.87
1379.35
1396.28
1413.26
1430.39
1447.65
1465.08
1482.65
1500.3
1517.93
1535.42
1552.52
1568.97
1584.53
1599.09
1612.33
1623.25
1631.84
1638.12
1642.8
1644.84
1644.33
1642.19
1638.69
1632.54
1626.16
1618.55
1608.7
1593.81
1581.71
1569.19
1555.65
1541.44
1526.78
1511.37
1494.93
1476.52
1454.47
1426.79
1388.49
1336.63
1270.16
1193.77
1121.04
1060.26
1011.14
971.755
938.886
910.268
883.764
859.878
837.59
815.785
793.524
772.176
752.039
733.363
716.101
699.896
685.335
671.947
659.619
648.261
639.171
631.513
627.034
622.598
617.939
611.754
611.296
610.429
607.107
606.521
604.869
602.969
602.023
601.119
600.35
599.759
599.11
598.435
598.977
599.357
600.728
602.882
603.156
12502.3
2945.37
1540.98
1105.08
915.496
820.458
770.312
745.194
735.203
734.225
740.107
751.665
767.621
787.274
810.307
835.098
861.033
888.111
916.441
945.933
976.29
1007.02
1037.64
1067.86
1097.79
1127.24
1156.93
1186
1215.02
1244.06
1274.52
1306.11
1339.05
1373.39
1409.25
1446.82
1486.3
1527.97
1572.23
1619.45
1670.09
1724.68
1783.5
1846.71
1913.8
1983.37
2052.64
2118.02
2175.59
2222.08
2250.39
2269.13
2273.29
2264.83
2245.88
2218.55
2183.42
2146.49
2108.08
2067.5
2023.62
1975.17
1920.38
1857.58
1785.31
1705.33
1618.09
1530.48
1439.7
1398.68
1399.73
1491.83
1754.63
1913.34
1903.22
1740
1553.56
1414.42
1328.97
1279.94
1251.98
1233.39
1224
1219.63
1218.52
1220.44
1225.37
1233.69
1245.39
1259.92
1276.86
1295.91
1316.92
1339.52
1360.6
1380.32
1399.03
1417.8
1436.69
1455.65
1474.63
1493.65
1512.59
1531.41
1549.97
1567.98
1584.96
1600.38
1613.65
1624.33
1632.94
1638.47
1640.69
1640.88
1638.59
1633.76
1628.01
1620.16
1607.53
1596.67
1585.37
1572.93
1559.27
1545.01
1530.24
1514.88
1498.91
1482.4
1464.75
1445.27
1422.34
1393.58
1356.72
1308.23
1243.71
1164.79
1083.08
1013.86
960.571
920.061
887.965
860.94
837.19
814.263
791.797
769.905
749.837
730.601
713.334
697.056
682.262
668.567
656.182
645.317
635.364
627.148
622.865
617.563
618.191
615.807
612.128
608.372
604.587
605.336
605.739
605.934
605.764
607.511
606.146
606.274
604.571
602.556
600.561
598.954
597.267
596.051
593.959
593.182
591.361
591.048
12555.5
2993.06
1576.23
1131.62
936.008
837.107
784.464
757.791
746.976
745.867
752.039
764.043
780.566
800.849
824.179
848.16
873.017
898.853
925.745
953.658
982.429
1011.7
1041.11
1070.43
1099.29
1127.3
1155.27
1183.62
1212.55
1242.86
1273.1
1305.29
1338.7
1373.38
1409.44
1447.01
1486.32
1527.66
1571.61
1618.86
1670.29
1726.92
1789.95
1860.28
1938.27
2022.94
2110.57
2196.38
2273.8
2336.86
2378.34
2403.02
2410.13
2402.12
2381.41
2350.69
2312.07
2268.65
2224.72
2179.83
2133.03
2082.69
2026.45
1962.45
1888.53
1805.2
1714.89
1624.6
1535.89
1498.24
1498.57
1562.14
1755.21
1825.14
1760.82
1607.61
1456.53
1347.75
1280.22
1240.36
1217.03
1202.28
1195.34
1193.16
1194.2
1198.18
1205.14
1215.67
1229.46
1246.01
1264.89
1285.74
1308.45
1332.09
1356.21
1378.06
1398.31
1419.18
1439.89
1460.46
1480.99
1501.41
1521.62
1541.44
1560.81
1579.14
1595.59
1609.36
1620.54
1628.07
1632.49
1633.5
1630.81
1626.42
1618.81
1607.55
1597.18
1585.73
1572.85
1559.12
1544.66
1529.58
1513.87
1497.64
1481.09
1463.98
1446.08
1427.1
1406.3
1382.73
1353.64
1318.37
1273.12
1211.59
1129.71
1043.19
970.211
915.296
874.74
843.577
818.224
794.533
772.211
751.184
732.059
714.272
698.173
682.804
669.397
656.713
645.582
635.414
627.462
621.044
614.876
614.122
612.592
609.641
605.81
606.799
606.594
606.351
605.904
606.291
609.549
613.276
618.214
622.631
621.617
619.565
616.648
613.399
609.525
605.785
601.187
597.399
592.741
590.122
585.852
584.599
12565.4
3047.46
1613.73
1158.14
955.882
852.618
797.064
768.355
756.192
754.537
760.531
772.407
788.764
808.669
831.514
855.94
880.59
905.839
931.855
958.673
986.247
1014.34
1042.65
1070.93
1097.71
1124.73
1151.99
1179.67
1208.24
1238.42
1270.03
1302
1334.93
1368.9
1403.95
1440.16
1477.69
1516.8
1558.09
1602.63
1652.1
1709.86
1775.99
1850.58
1940.78
2043.87
2155.61
2268.47
2373.19
2458.54
2518.25
2549.85
2559.65
2551.09
2526.92
2491.14
2447.5
2397.36
2347.61
2298.09
2248.1
2196.04
2139.52
2076.01
2002.99
1919.02
1826.7
1734.43
1644.8
1602.15
1604.03
1649.96
1733.29
1743.78
1651.96
1513.44
1387.87
1299.17
1242.93
1208.7
1188.06
1175.85
1170.47
1169.73
1172.18
1177.56
1186
1197.98
1213.08
1230.82
1250.8
1272.58
1295.91
1320.44
1345.06
1369.56
1392.42
1415.37
1438.27
1461.05
1483.13
1504.92
1526.22
1546.7
1566.15
1583.81
1598.76
1610.02
1617.84
1621.19
1620.9
1617.13
1607.47
1598.21
1587.29
1574.47
1560.38
1545.24
1529.23
1512.59
1495.63
1478.44
1460.87
1442.84
1424.23
1404.88
1384.47
1362.54
1337.81
1309.4
1275.72
1233.6
1172.85
1090.8
1003.97
930.246
875.063
834.277
803.759
779.194
756.627
736.275
717.903
701.016
685.763
671.954
659.294
648.015
638.076
629.423
623.016
617.368
613.09
610.437
608.199
605.306
606.832
606.502
606.26
605.618
607.554
610.723
617.408
624.046
633.185
642.153
648.417
649.195
647.011
642.812
637.504
631.637
624.802
617.771
609.528
602.164
593.713
587.83
580.991
577.483
12539.5
3066.85
1640.24
1182.19
975.676
868.318
809.577
778.32
764.175
761.378
766.625
777.792
793.41
812.382
833.917
857.298
882.164
908.16
934.738
961.323
988.307
1015.76
1043.54
1070.87
1097.47
1123.81
1150.21
1176.72
1203.88
1232.08
1261.38
1291.85
1323.25
1355.35
1388.13
1421.67
1456.15
1491.95
1529.82
1570.99
1617.05
1673.03
1738.4
1822.45
1928.8
2055.7
2196.97
2343.79
2484.16
2597.45
2675.11
2711.39
2722.26
2711.68
2682.25
2639.59
2588.56
2531.65
2475.06
2419.98
2366.19
2312.39
2255.99
2194.45
2124.47
2042.77
1951.14
1857.07
1768.06
1713.89
1691.54
1697.48
1709.26
1658.95
1553.87
1434.51
1334.72
1260.58
1213.8
1183.84
1164.71
1153.42
1149.33
1149.09
1152.18
1158.26
1167.65
1180.36
1196
1214.23
1234.64
1256.89
1280.68
1305.77
1332.08
1359.35
1384.91
1410.3
1435.6
1458.99
1482.56
1505.57
1527.48
1547.74
1566.17
1582.15
1594.5
1602.71
1606.05
1603.43
1597.49
1589.53
1578.61
1565.56
1550.54
1533.87
1516.03
1497.6
1478.78
1459.76
1440.64
1421.4
1401.9
1381.93
1361.27
1339.58
1316.33
1291.11
1263.19
1231.09
1190.69
1131.49
1052.63
968.448
895.75
840.48
799.634
769.356
745.635
724.587
706.222
689.995
675.46
662.504
651.065
641.115
632.466
625.571
620.275
615.494
613.096
609.704
609.909
609.093
608.186
607.94
608.631
608.739
612.457
618.148
626.72
638.581
652.024
665.639
678.496
686.478
690.118
690.059
685.661
678.323
668.668
657.836
646.405
635.248
622.884
610.92
598.463
588.342
578.285
571.409
12486.8
3207.52
1697.1
1217.35
1000.93
887.407
824.425
790.019
773.534
769.118
773.05
783.098
797.846
816.045
836.838
859.578
883.788
908.594
935.604
962.804
990.073
1017.64
1045.48
1072.67
1099.16
1125.37
1151.54
1177.44
1203.95
1230.82
1258.09
1285.91
1314.26
1343.06
1372.39
1402.45
1433.57
1466.28
1501.5
1541.03
1588.01
1647.15
1724.71
1824.97
1956.31
2114.66
2290.21
2471.48
2638.79
2770.18
2857.66
2893.27
2900.5
2883.19
2845.58
2793.58
2733.55
2670
2604.66
2542.77
2484.38
2428.37
2372.26
2312.96
2247.34
2170.74
2082.54
1989.2
1903.12
1829.43
1773.82
1759.3
1740.51
1676.22
1563.67
1440.34
1311.94
1252.87
1196.06
1165.33
1147.55
1135.72
1131.78
1131.37
1134.32
1140.52
1150.09
1162.83
1178.49
1196.75
1217.38
1240.19
1264.97
1291.5
1320.49
1349.02
1376.62
1404.06
1431.03
1456.64
1481.27
1504.99
1526.67
1545.12
1561.29
1574.63
1583.02
1585.49
1583.97
1578.68
1569.87
1557.85
1542.84
1525.5
1506.28
1485.8
1464.65
1443.32
1422.12
1401.17
1380.44
1359.73
1338.73
1317.05
1294.32
1270.18
1244.61
1217.28
1186.59
1146.82
1090.5
1017.05
937.758
867.082
811.802
770.748
740.167
717.043
697.458
680.684
666.661
654.373
643.972
635.114
628.389
622.757
618.463
614.589
611.61
611.819
611.087
608.587
608.364
607.964
610.06
612.885
619.033
627.462
640.86
653.953
672.089
690.027
709.016
723.881
733.669
735.488
737.805
736.426
729.663
719.196
706.005
691.021
674.722
658.739
642.327
625.802
608.917
594.113
579.986
569.155
12353.8
3426.73
1783.78
1267.97
1036.05
913.809
845.337
807.139
788.004
781.858
784.52
793.29
807.079
824.438
844.305
865.798
888.759
913.36
939.709
968.124
996.212
1024.36
1052.42
1080.02
1107.08
1133.76
1160.28
1186.86
1213.7
1240.82
1267.88
1294.88
1322.14
1349.91
1378.33
1407.72
1438.71
1472.26
1509.93
1554.68
1611.44
1687.72
1790.23
1929.87
2105.55
2306.39
2513.88
2713.74
2881.4
3001.69
3075.24
3100.04
3094
3062.52
3012.07
2947.71
2876.54
2803.58
2732.35
2663.16
2599.79
2541.19
2485.18
2428.22
2367.06
2297.16
2215.27
2124.18
2035
1948.49
1868.91
1812.23
1747.76
1679.27
1570.55
1446.94
1336.14
1248.96
1201.57
1164.94
1138.59
1124.08
1117.79
1116.66
1118.57
1124.21
1133.33
1145.8
1161.42
1180.02
1201.45
1226.06
1253.4
1282.56
1312.44
1342.2
1371.58
1401.54