/*--------------------------------*- C++ -*----------------------------------*\
| =========                 |                                                 |
| \\      /  F ield         | OpenFOAM: The Open Source CFD Toolbox           |
|  \\    /   O peration     | Version:  4.x                                   |
|   \\  /    A nd           | Web:      www.OpenFOAM.org                      |
|    \\/     M anipulation  |                                                 |
\*---------------------------------------------------------------------------*/
FoamFile
{
    version     2.0;
    format      ascii;
    class       volScalarField;
    location    "100";
    object      p;
}
// * * * * * * * * * * * * * * * * * * * * * * * * * * * * * * * * * * * * * //

dimensions      [0 2 -2 0 0 0 0];

internalField   nonuniform List<scalar> 
12225
(
-6.22598
-7.09258
-7.48047
-7.59998
-7.72477
-7.87697
-8.01684
-8.13557
-8.2407
-8.3396
-8.43775
-8.53692
-8.63858
-8.74523
-8.86073
-8.99189
-9.14594
-9.34529
-6.50025
-7.1457
-7.47196
-7.58674
-7.70806
-7.85592
-7.99357
-8.11201
-8.21861
-8.32006
-8.41962
-8.51918
-8.62046
-8.72587
-8.8386
-8.9635
-9.1029
-9.24959
-6.70023
-7.14168
-7.44647
-7.5852
-7.71196
-7.8561
-7.9907
-8.10734
-8.21304
-8.31383
-8.41197
-8.50952
-8.60818
-8.70987
-8.81644
-8.92977
-9.04521
-9.14393
-6.84871
-7.16595
-7.4554
-7.60461
-7.72592
-7.85985
-7.98805
-8.10122
-8.20458
-8.30328
-8.39958
-8.4951
-8.59115
-8.68878
-8.78864
-8.89003
-8.98583
-9.06043
-6.97887
-7.2136
-7.47253
-7.62177
-7.73837
-7.86459
-7.98769
-8.098
-8.19921
-8.29591
-8.39027
-8.48335
-8.57599
-8.66865
-8.76103
-8.85101
-8.93167
-8.99123
-7.09478
-7.2668
-7.48858
-7.6353
-7.74984
-7.86975
-7.98757
-8.09467
-8.19348
-8.28794
-8.37988
-8.46996
-8.55863
-8.64589
-8.73078
-8.81062
-8.87948
-8.92908
-7.19788
-7.32232
-7.50803
-7.64907
-7.761
-7.87429
-7.98621
-8.08966
-8.18578
-8.27766
-8.36678
-8.45352
-8.53798
-8.61976
-8.69759
-8.76883
-8.82897
-8.87261
-7.27654
-7.37117
-7.52904
-7.66207
-7.77045
-7.87785
-7.98438
-8.08427
-8.17766
-8.26694
-8.35328
-8.43685
-8.51748
-8.59458
-8.66687
-8.73211
-8.78694
-8.82791
-7.34018
-7.41493
-7.55007
-7.67448
-7.77905
-7.88116
-7.98268
-8.07905
-8.1697
-8.25637
-8.33995
-8.4205
-8.49759
-8.5706
-8.63834
-8.69904
-8.7503
-8.78986
-7.40324
-7.46178
-7.57498
-7.689
-7.7887
-7.88504
-7.98096
-8.07315
-8.16048
-8.24399
-8.32432
-8.40138
-8.47465
-8.54344
-8.60681
-8.66342
-8.71179
-8.75065
-7.46474
-7.51033
-7.60347
-7.70566
-7.79925
-7.88938
-7.97916
-8.06645
-8.14982
-8.22957
-8.30611
-8.37925
-8.44843
-8.51299
-8.57214
-8.62514
-8.67114
-8.70962
-7.52345
-7.55892
-7.63456
-7.72414
-7.81038
-7.8939
-7.9771
-8.05882
-8.13752
-8.21295
-8.28517
-8.35399
-8.41888
-8.47923
-8.53447
-8.58421
-8.6282
-8.66633
-7.57801
-7.60575
-7.66671
-7.74366
-7.82159
-7.89809
-7.97443
-8.04996
-8.12337
-8.1939
-8.26137
-8.32548
-8.38592
-8.44208
-8.49365
-8.54038
-8.58244
-8.61994
-7.62681
-7.64869
-7.69774
-7.76286
-7.83192
-7.90108
-7.97039
-8.0394
-8.10694
-8.17213
-8.23442
-8.2936
-8.3493
-8.4013
-8.44918
-8.49302
-8.5329
-8.56925
-7.66779
-7.68527
-7.72496
-7.77963
-7.83991
-7.90162
-7.96396
-8.02632
-8.08768
-8.14715
-8.20405
-8.25802
-8.30887
-8.35644
-8.40057
-8.44122
-8.47858
-8.51297
-7.69828
-7.71251
-7.74512
-7.79117
-7.84342
-7.89802
-7.95368
-8.00956
-8.06473
-8.11836
-8.16974
-8.21841
-8.26423
-8.30717
-8.34721
-8.38425
-8.41849
-8.45014
-7.71473
-7.72665
-7.75431
-7.79388
-7.83955
-7.88794
-7.93758
-7.98756
-8.03693
-8.08493
-8.13087
-8.17428
-8.21504
-8.25317
-8.28872
-8.32159
-8.35193
-8.37988
-7.71227
-7.72302
-7.74826
-7.78427
-7.82594
-7.87002
-7.91535
-7.96079
-8.00567
-8.04894
-8.09028
-8.12898
-8.16527
-8.19884
-8.2301
-8.2586
-8.28481
-8.30857
-7.69213
-7.703
-7.72843
-7.76424
-7.8048
-7.84725
-7.89033
-7.93344
-7.97541
-8.01574
-8.05358
-8.08899
-8.12155
-8.15174
-8.17913
-8.20415
-8.22635
-8.24661
-7.6598
-7.67196
-7.70007
-7.73844
-7.78041
-7.82308
-7.86591
-7.90814
-7.94899
-7.98745
-8.02332
-8.05621
-8.08644
-8.11377
-8.13857
-8.16044
-8.17991
-8.19698
-7.6182
-7.63302
-7.66649
-7.70998
-7.75503
-7.79929
-7.84301
-7.88573
-7.92632
-7.96404
-7.99864
-8.03008
-8.05856
-8.08403
-8.10663
-8.12633
-8.14337
-8.15827
-7.56883
-7.5882
-7.63029
-7.68124
-7.73033
-7.77687
-7.8224
-7.86638
-7.90746
-7.94503
-7.97898
-8.00965
-8.03691
-8.06118
-8.08204
-8.1002
-8.11524
-8.12849
-7.51214
-7.53899
-7.59383
-7.65405
-7.70735
-7.75652
-7.80453
-7.85025
-7.89215
-7.92992
-7.96379
-7.99397
-8.02065
-8.0438
-8.06371
-8.08032
-8.09428
-8.10577
-7.44775
-7.48685
-7.55956
-7.62977
-7.68649
-7.73851
-7.78955
-7.83726
-7.88009
-7.91827
-7.95232
-7.98239
-8.00862
-8.03109
-8.05
-8.06575
-8.07848
-8.0892
-7.37451
-7.43332
-7.53011
-7.60952
-7.66796
-7.72284
-7.77727
-7.82697
-7.8707
-7.90946
-7.94392
-7.97413
-8.00009
-8.02199
-8.04012
-8.05496
-8.06686
-8.07667
-7.2914
-7.38
-7.50674
-7.59361
-7.65224
-7.70973
-7.76716
-7.81846
-7.86296
-7.90235
-7.9374
-7.96799
-7.99406
-8.01573
-8.03329
-8.04742
-8.05868
-8.06809
-7.19922
-7.33097
-7.48703
-7.57746
-7.63721
-7.69874
-7.75918
-7.81163
-7.85678
-7.89668
-7.93215
-7.96299
-7.98907
-8.01055
-8.02743
-8.04068
-8.05109
-8.05989
-7.0911
-7.29888
-7.4745
-7.55646
-7.61694
-7.68532
-7.75068
-7.8058
-7.85302
-7.89491
-7.93191
-7.96379
-7.9907
-8.0124
-8.02911
-8.04182
-8.05173
-8.061
-6.92058
-7.29003
-7.49729
-7.55966
-7.61144
-7.68025
-7.74581
-7.8
-7.84687
-7.88915
-7.92663
-7.95884
-7.98587
-8.00737
-8.02321
-8.0344
-8.0426
-8.04981
-6.65818
-7.21516
-7.48785
-7.55785
-7.61374
-7.68843
-7.75765
-7.81334
-7.86126
-7.90469
-7.94314
-7.97596
-8.00313
-8.02415
-8.03819
-8.04614
-8.05023
-8.05067
-9.20599
-9.20382
-9.22487
-9.25477
-9.28028
-9.29537
-9.30617
-9.31717
-9.32979
-9.34219
-9.35581
-9.37101
-9.38987
-9.41147
-9.43701
-9.465
-9.49684
-9.53149
-9.57059
-9.61225
-9.65701
-9.70205
-9.74766
-9.79044
-9.82965
-9.86077
-9.8824
-9.8896
-9.88055
-9.84954
-9.79424
-9.70976
-9.59386
-9.4407
-9.24997
-9.0215
-8.75932
-8.46208
-8.13021
-7.76654
-7.3818
-6.98151
-6.57139
-6.15927
-5.7595
-5.3768
-5.01612
-4.68549
-4.39348
-4.13706
-3.915
-3.73013
-3.58043
-3.45627
-3.3541
-3.27568
-3.22304
-3.19479
-3.18936
-3.20286
-3.2316
-3.27081
-3.31706
-3.36752
-3.41943
-3.46981
-3.51616
-3.55588
-3.58702
-3.61268
-3.6297
-3.63491
-3.62123
-3.57992
-3.51452
-3.44508
-3.38947
-3.36038
-3.36154
-3.41476
-3.5427
-3.77225
-4.15757
-4.76028
-5.6461
-6.87211
-8.42719
-10.2357
-12.1788
-14.1549
-16.0877
-17.9251
-19.6328
-21.1919
-22.5915
-23.8262
-24.8935
-25.7949
-26.5298
-27.1005
-27.5079
-27.756
-27.8466
-27.7845
-27.5732
-27.2198
-26.7298
-26.1119
-25.3729
-24.5225
-23.5702
-22.5276
-21.4054
-20.2157
-18.97
-17.6804
-16.3592
-15.0186
-13.6694
-12.3212
-10.9829
-9.66191
-8.3649
-7.09778
-5.86636
-4.67563
-3.53039
-2.43431
-1.39115
-0.403474
0.526569
1.39844
2.21259
2.97151
3.679
4.34071
4.9628
5.55264
6.11693
6.66116
7.18814
7.69967
8.19565
8.67538
9.13638
9.5769
9.99474
10.3882
10.7554
11.0951
11.4062
11.6887
11.9431
12.1706
12.372
12.5466
12.6948
12.8175
12.916
12.992
13.047
13.0829
13.1018
13.1065
13.0988
13.0812
13.0557
13.0247
12.9903
12.9545
12.9195
12.8874
12.8606
12.8421
12.8368
12.8503
12.8961
12.9823
13.1624
13.3565
-9.21927
-9.22356
-9.24436
-9.26551
-9.28133
-9.29534
-9.30991
-9.32335
-9.33547
-9.34658
-9.35861
-9.37206
-9.38836
-9.4074
-9.43051
-9.45734
-9.48894
-9.52422
-9.56389
-9.60634
-9.65157
-9.69732
-9.74323
-9.78656
-9.82634
-9.85907
-9.88292
-9.89355
-9.88829
-9.8624
-9.81367
-9.73949
-9.63812
-9.50442
-9.33593
-9.13228
-8.8961
-8.62688
-8.32476
-7.9915
-7.63466
-7.26144
-6.87783
-6.48925
-6.10666
-5.7395
-5.39261
-5.06853
-4.775
-4.51661
-4.29056
-4.09405
-3.92875
-3.78958
-3.67094
-3.57233
-3.49536
-3.44147
-3.4111
-3.40183
-3.40907
-3.4266
-3.4508
-3.48035
-3.51384
-3.54893
-3.58152
-3.60977
-3.63236
-3.65034
-3.65798
-3.6503
-3.62922
-3.58417
-3.50282
-3.40639
-3.32713
-3.29007
-3.31236
-3.41448
-3.60459
-3.90469
-4.39396
-5.12617
-6.15481
-7.51356
-9.16854
-11.0121
-12.9337
-14.8475
-16.6975
-18.4448
-20.0671
-21.5507
-22.8878
-24.0722
-25.1023
-25.9756
-26.6905
-27.2459
-27.644
-27.8862
-27.9752
-27.9143
-27.7083
-27.3613
-26.8789
-26.2675
-25.535
-24.6896
-23.742
-22.7031
-21.5843
-20.3969
-19.1525
-17.8629
-16.5405
-15.1976
-13.8446
-12.4916
-11.1472
-9.81927
-8.51427
-7.23863
-5.99832
-4.79883
-3.64519
-2.54148
-1.4914
-0.497959
0.436863
1.31238
2.12927
2.88993
3.59865
4.26114
4.88413
5.47496
6.04035
6.58532
7.11279
7.62433
8.12004
8.59907
9.05923
9.4984
9.9147
10.3066
10.6723
11.0111
11.322
11.6047
11.8595
12.087
12.2878
12.4623
12.6108
12.7342
12.8337
12.9107
12.9669
13.0043
13.0248
13.0311
13.0253
13.0099
12.9867
12.958
12.926
12.8929
12.8606
12.831
12.8066
12.7902
12.7864
12.8001
12.8428
12.9167
13.0678
13.2112
-9.25042
-9.24856
-9.25749
-9.2691
-9.28024
-9.29288
-9.30662
-9.31921
-9.33093
-9.34204
-9.35408
-9.36718
-9.38271
-9.40066
-9.42242
-9.4478
-9.47792
-9.51202
-9.55058
-9.59213
-9.63647
-9.68146
-9.72648
-9.76904
-9.80793
-9.84023
-9.86471
-9.87831
-9.87906
-9.86329
-9.82868
-9.77211
-9.69157
-9.58239
-9.4414
-9.26798
-9.06359
-8.8271
-8.55829
-8.25865
-7.933
-7.58702
-7.22713
-6.85853
-6.4891
-6.12686
-5.77886
-5.4503
-5.14757
-4.8755
-4.63506
-4.42445
-4.24306
-4.08944
-3.96148
-3.85734
-3.77545
-3.71413
-3.67151
-3.64541
-3.63298
-3.63068
-3.63577
-3.64615
-3.65854
-3.66785
-3.67154
-3.66856
-3.65991
-3.65194
-3.64054
-3.62086
-3.60213
-3.58834
-3.56738
-3.54332
-3.53406
-3.56246
-3.64795
-3.80145
-4.04865
-4.44822
-5.07711
-6.00278
-7.22013
-8.67955
-10.3174
-12.0578
-13.8335
-15.5953
-17.3066
-18.9386
-20.4695
-21.8835
-23.1695
-24.3185
-25.3258
-26.1851
-26.8921
-27.4442
-27.8437
-28.0891
-28.1828
-28.1268
-27.9257
-27.5833
-27.1061
-26.4986
-25.7693
-24.9265
-23.9804
-22.9416
-21.8221
-20.6331
-19.3861
-18.0933
-16.7673
-15.4192
-14.0599
-12.699
-11.3456
-10.0078
-8.69226
-7.40584
-6.15446
-4.94377
-3.77883
-2.66421
-1.6036
-0.600456
0.342945
1.22527
2.04717
2.81092
3.52124
4.18392
4.80622
5.39597
5.96041
6.50459
7.03183
7.5434
8.0394
8.51845
8.97857
9.41741
9.83322
10.2243
10.5894
10.9276
11.2384
11.5212
11.7764
12.0044
12.2056
12.3804
12.5291
12.653
12.7531
12.8307
12.8876
12.926
12.9478
12.9553
12.9509
12.9368
12.9151
12.8879
12.8576
12.8261
12.7952
12.7667
12.743
12.7268
12.7219
12.7325
12.7671
12.8247
12.9324
13.0028
-9.28026
-9.27425
-9.2818
-9.29303
-9.30447
-9.31805
-9.33197
-9.34388
-9.35458
-9.36454
-9.37538
-9.38729
-9.40175
-9.41868
-9.43946
-9.46388
-9.49312
-9.52656
-9.56457
-9.60562
-9.64957
-9.69448
-9.74003
-9.78413
-9.82577
-9.8623
-9.89262
-9.91406
-9.92464
-9.92071
-9.90083
-9.86229
-9.80247
-9.71628
-9.60114
-9.45561
-9.27898
-9.06956
-8.82758
-8.55396
-8.25176
-7.92503
-7.57954
-7.22135
-6.85765
-6.49516
-6.14175
-5.80428
-5.48843
-5.19829
-4.93717
-4.70587
-4.50308
-4.32779
-4.17999
-4.05932
-3.96479
-3.89455
-3.84581
-3.81463
-3.79729
-3.79075
-3.79053
-3.78951
-3.78174
-3.76422
-3.73879
-3.70817
-3.67718
-3.65548
-3.64258
-3.62843
-3.6136
-3.6049
-3.60175
-3.60314
-3.63001
-3.70868
-3.85421
-4.10164
-4.49995
-5.12296
-6.01567
-7.15316
-8.48488
-9.9604
-11.5343
-13.1623
-14.8061
-16.4355
-18.0265
-19.5557
-21.0019
-22.3485
-23.5824
-24.6937
-25.6727
-26.5122
-27.206
-27.7507
-28.1455
-28.389
-28.4814
-28.4251
-28.2231
-27.88
-27.4014
-26.7922
-26.0602
-25.2146
-24.2643
-23.2202
-22.0942
-20.8975
-19.6426
-18.3422
-17.0081
-15.6511
-14.2818
-12.9098
-11.5442
-10.1934
-8.86499
-7.56593
-6.30215
-5.07908
-3.90165
-2.77457
-1.70178
-0.686758
0.267677
1.15957
1.98885
2.75761
3.47056
4.13393
4.75553
5.34409
5.90756
6.45132
6.97881
7.49132
7.98867
8.46921
8.93078
9.37096
9.78795
10.1801
10.5463
10.8853
11.1964
11.4793
11.7345
11.9623
12.163
12.3371
12.4852
12.6081
12.7073
12.7841
12.8403
12.8781
12.8997
12.9069
12.9021
12.8876
12.8655
12.838
12.8072
12.775
12.7432
12.7134
12.6877
12.6685
12.6591
12.6626
12.6844
12.7202
12.7826
12.7849
-9.31354
-9.30855
-9.32022
-9.32975
-9.33978
-9.3533
-9.36783
-9.38094
-9.39322
-9.40491
-9.41747
-9.43094
-9.4466
-9.46442
-9.48585
-9.51069
-9.53999
-9.57339
-9.61206
-9.65491
-9.7015
-9.74979
-9.79963
-9.84933
-9.89815
-9.94351
-9.98443
-10.0181
-10.0426
-10.0551
-10.0549
-10.0382
-10.0006
-9.93814
-9.84939
-9.73121
-9.5811
-9.39661
-9.17758
-8.92466
-8.64012
-8.32663
-7.9897
-7.63519
-7.26945
-6.89906
-6.53257
-6.17683
-5.83808
-5.52231
-5.23382
-4.97445
-4.74487
-4.54413
-4.37167
-4.22788
-4.11353
-4.02788
-3.96827
-3.93033
-3.91034
-3.90401
-3.90337
-3.89777
-3.88118
-3.85228
-3.81306
-3.76975
-3.72904
-3.6952
-3.66459
-3.63149
-3.59802
-3.57319
-3.56563
-3.58502
-3.65597
-3.80402
-4.05557
-4.46831
-5.1095
-5.9934
-7.09195
-8.35742
-9.74257
-11.2101
-12.7306
-14.2775
-15.8262
-17.3581
-18.8543
-20.2976
-21.6688
-22.9529
-24.1348
-25.2038
-26.1489
-26.9624
-27.6365
-28.1675
-28.5505
-28.7846
-28.8687
-28.8053
-28.5963
-28.2463
-27.759
-27.1417
-26.4009
-25.5457
-24.5855
-23.5315
-22.3946
-21.1867
-19.9204
-18.6088
-17.2631
-15.8942
-14.5122
-13.1269
-11.7476
-10.3825
-9.04019
-7.72741
-6.4503
-5.21414
-4.02408
-2.88449
-1.79961
-0.772857
0.19238
1.09393
1.93071
2.70459
3.41994
4.08369
4.70425
5.29157
5.85413
6.39792
6.92597
7.43982
7.93869
8.42103
8.88433
9.32642
9.74526
10.1392
10.5069
10.8471
11.1589
11.4425
11.698
11.9259
12.1263
12.3001
12.448
12.5706
12.6693
12.7458
12.8019
12.8396
12.8609
12.8679
12.8629
12.8479
12.8253
12.797
12.765
12.7313
12.6972
12.6644
12.6348
12.6104
12.5936
12.5863
12.5912
12.6013
12.6198
12.5633
-9.35232
-9.35169
-9.364
-9.37176
-9.38244
-9.39747
-9.41392
-9.42952
-9.44489
-9.46016
-9.47654
-9.49387
-9.51335
-9.53498
-9.56021
-9.58901
-9.62251
-9.66015
-9.703
-9.75058
-9.80324
-9.85909
-9.91768
-9.97726
-10.0373
-10.0954
-10.1508
-10.2011
-10.2452
-10.2803
-10.3044
-10.3129
-10.3025
-10.2695
-10.211
-10.1227
-10.002
-9.84585
-9.65282
-9.42241
-9.15624
-8.85608
-8.52632
-8.17226
-7.80004
-7.4166
-7.03028
-6.64795
-6.27727
-5.92557
-5.59805
-5.29789
-5.02806
-4.78994
-4.5837
-4.40884
-4.26662
-4.15736
-4.07914
-4.02847
-4.00215
-3.99327
-3.99103
-3.98695
-3.97559
-3.95321
-3.91997
-3.87746
-3.82788
-3.77568
-3.72409
-3.67676
-3.63951
-3.62352
-3.6402
-3.70379
-3.84
-4.08335
-4.48661
-5.11285
-5.97477
-7.04007
-8.26167
-9.59273
-10.9964
-12.4458
-13.9212
-15.4051
-16.882
-18.3371
-19.7585
-21.13
-22.4365
-23.6633
-24.7962
-25.8226
-26.7332
-27.517
-28.1676
-28.6791
-29.0456
-29.264
-29.3347
-29.2581
-29.0364
-28.6731
-28.1724
-27.541
-26.7861
-25.9162
-24.9416
-23.8732
-22.7221
-21.5002
-20.2202
-18.8945
-17.5345
-16.151
-14.7539
-13.3533
-11.9584
-10.5783
-9.2217
-7.89549
-6.60569
-5.35769
-4.15647
-3.00637
-1.9114
-0.87516
0.098796
1.00778
1.85044
2.62828
3.34577
4.01021
4.63089
5.21831
5.78148
6.32657
6.85663
7.37278
7.87414
8.35886
8.82432
9.26827
9.68865
10.0838
10.4523
10.793
11.1053
11.3891
11.6447
11.8725
12.0727
12.2463
12.394
12.5166
12.6153
12.6922
12.7487
12.7869
12.8086
12.8162
12.8115
12.7968
12.7742
12.7457
12.7131
12.6781
12.6419
12.606
12.5718
12.5412
12.5154
12.4956
12.4816
12.4647
12.443
12.3391
-9.39297
-9.3957
-9.407
-9.41692
-9.43132
-9.44924
-9.46846
-9.48751
-9.50712
-9.52725
-9.54895
-9.57201
-9.59756
-9.62553
-9.65732
-9.69304
-9.73406
-9.78008
-9.83186
-9.88867
-9.95097
-10.0175
-10.0885
-10.1623
-10.2388
-10.3158
-10.3926
-10.4669
-10.5372
-10.6003
-10.654
-10.6945
-10.7189
-10.7224
-10.7009
-10.649
-10.5631
-10.4397
-10.2766
-10.0722
-9.82723
-9.54243
-9.22062
-8.86606
-8.48457
-8.08322
-7.67034
-7.25323
-6.84043
-6.44077
-6.06102
-5.70593
-5.3805
-5.08877
-4.83345
-4.61593
-4.4367
-4.29583
-4.19234
-4.12325
-4.08329
-4.0648
-4.05893
-4.05853
-4.05909
-4.05484
-4.03856
-4.00577
-3.95988
-3.90725
-3.85457
-3.81165
-3.78737
-3.79448
-3.84924
-3.96988
-4.19109
-4.56558
-5.15503
-5.9755
-6.99869
-8.17731
-9.46461
-10.8225
-12.2244
-13.6518
-15.0903
-16.5268
-17.9485
-19.346
-20.7081
-22.0218
-23.2738
-24.4497
-25.5376
-26.5245
-27.4004
-28.154
-28.7788
-29.2667
-29.6122
-29.8109
-29.8629
-29.7678
-29.5281
-29.1462
-28.6273
-27.9769
-27.2034
-26.315
-25.3224
-24.2361
-23.0676
-21.8287
-20.5322
-19.1896
-17.8122
-16.4106
-14.9954
-13.5769
-12.1652
-10.7698
-9.39911
-8.06048
-6.75965
-5.5021
-4.2923
-3.13468
-2.03298
-0.990805
-0.0114296
0.901893
1.74776
2.52735
3.24565
3.91046
4.53214
5.12131
5.68723
6.23567
6.76973
7.28963
7.79447
8.28187
8.74944
9.1948
9.61613
10.0117
10.3803
10.7208
11.0328
11.3163
11.5715
11.7988
11.9988
12.1721
12.3196
12.4422
12.5414
12.6188
12.6762
12.7153
12.7381
12.7466
12.7428
12.7289
12.7069
12.6786
12.6458
12.61
12.5719
12.5328
12.4938
12.4561
12.4207
12.387
12.3537
12.3104
12.2533
12.113
-9.4323
-9.43643
-9.45032
-9.46588
-9.48503
-9.5065
-9.52931
-9.55261
-9.57716
-9.60287
-9.63075
-9.66064
-9.6936
-9.72961
-9.77
-9.81488
-9.86569
-9.92246
-9.98624
-10.0562
-10.1327
-10.2149
-10.3036
-10.3975
-10.4962
-10.598
-10.7026
-10.8075
-10.9112
-11.0103
-11.1024
-11.1837
-11.2506
-11.2978
-11.3205
-11.3126
-11.2695
-11.1857
-11.0582
-10.8839
-10.6621
-10.3928
-10.0779
-9.72073
-9.32647
-8.90159
-8.45455
-7.9933
-7.52747
-7.06735
-6.62188
-6.19828
-5.80358
-5.4444
-5.12648
-4.85371
-4.62731
-4.44643
-4.30931
-4.21249
-4.15042
-4.117
-4.10567
-4.11073
-4.12484
-4.13766
-4.14
-4.12793
-4.1032
-4.07045
-4.03709
-4.01165
-4.00682
-4.04056
-4.13882
-4.33103
-4.66044
-5.19393
-5.96014
-6.93394
-8.0686
-9.31673
-10.6393
-12.0079
-13.4033
-14.8115
-16.2214
-17.6221
-19.0033
-20.3559
-21.6721
-22.9404
-24.1475
-25.2815
-26.33
-27.2818
-28.1255
-28.851
-29.4492
-29.9128
-30.2349
-30.4116
-30.4411
-30.324
-30.0617
-29.6576
-29.116
-28.4432
-27.6472
-26.737
-25.7229
-24.6157
-23.4266
-22.1677
-20.8512
-19.488
-18.0893
-16.6662
-15.23
-13.7921
-12.3628
-10.9518
-9.56748
-8.21728
-6.90689
-5.64132
-4.42483
-3.26159
-2.15574
-1.11094
-0.130412
0.782881
1.62783
2.40621
3.12368
3.78887
4.41254
5.00516
5.57553
6.12913
6.66847
7.19317
7.7017
8.19165
8.66074
9.10682
9.52815
9.9232
10.291
10.6307
10.9419
11.2246
11.4789
11.7055
11.9051
12.0782
12.2257
12.3485
12.4483
12.5266
12.5853
12.6258
12.6501
12.66
12.6577
12.6449
12.6239
12.5963
12.5637
12.5271
12.4873
12.4448
12.4008
12.3559
12.3103
12.2624
12.2098
12.1418
12.0537
11.885
-9.47108
-9.47644
-9.49652
-9.51873
-9.54246
-9.56758
-9.59411
-9.62162
-9.65098
-9.68223
-9.71639
-9.75336
-9.79424
-9.83915
-9.88944
-9.94525
-10.0079
-10.0776
-10.1555
-10.2413
-10.3359
-10.4386
-10.5502
-10.6692
-10.7957
-10.9281
-11.0663
-11.2084
-11.3534
-11.4977
-11.6379
-11.7692
-11.888
-11.9879
-12.0633
-12.1074
-12.1145
-12.0783
-11.994
-11.8568
-11.6638
-11.4127
-11.1044
-10.7409
-10.3276
-9.87101
-9.3799
-8.86303
-8.33142
-7.7971
-7.27153
-6.76482
-6.28731
-5.84836
-5.45668
-5.11754
-4.83312
-4.60251
-4.42282
-4.29065
-4.20168
-4.15069
-4.13242
-4.1406
-4.1636
-4.19018
-4.21431
-4.23169
-4.23998
-4.23928
-4.23241
-4.2297
-4.25291
-4.32548
-4.47691
-4.75138
-5.20715
-5.89519
-6.80661
-7.89365
-9.10529
-10.3995
-11.7452
-13.1207
-14.5115
-15.9064
-17.2962
-18.6716
-20.0228
-21.3437
-22.6255
-23.8591
-25.0315
-26.1323
-27.1487
-28.0709
-28.8866
-29.5864
-30.1598
-30.5998
-30.8984
-31.0521
-31.0576
-30.9166
-30.6299
-30.2013
-29.635
-28.938
-28.1175
-27.1834
-26.1456
-25.0147
-23.802
-22.5196
-21.1788
-19.7906
-18.3667
-16.9193
-15.4607
-14.0024
-12.555
-11.1279
-9.72994
-8.36822
-7.04895
-5.7767
-4.55561
-3.38943
-2.28245
-1.23793
-0.259285
0.651089
1.49262
2.26797
2.9833
3.64845
4.27461
4.87237
5.44923
6.00989
6.55539
7.08503
7.59675
8.08852
8.5582
9.00414
9.42456
9.81847
10.1849
10.5232
10.8331
11.1146
11.3678
11.5938
11.7929
11.966
12.1135
12.2369
12.3376
12.4173
12.4775
12.5198
12.5459
12.5577
12.557
12.5458
12.526
12.4991
12.4666
12.4294
12.3877
12.3421
12.293
12.2408
12.1848
12.123
12.052
11.9613
11.846
11.6546
-9.512
-9.51946
-9.54682
-9.57458
-9.60157
-9.62948
-9.65917
-9.69039
-9.72403
-9.76027
-9.80019
-9.84386
-9.89248
-9.94637
-10.0069
-10.0745
-10.1503
-10.2347
-10.329
-10.4332
-10.5485
-10.6746
-10.8124
-10.9615
-11.1221
-11.2927
-11.4725
-11.6591
-11.8514
-12.0466
-12.2421
-12.4325
-12.6128
-12.7756
-12.9144
-13.0206
-13.0872
-13.1064
-13.0716
-12.9763
-12.8161
-12.5871
-12.2875
-11.9173
-11.4802
-10.9831
-10.4364
-9.8505
-9.238
-8.6134
-7.99146
-7.3861
-6.81158
-6.28049
-5.80333
-5.38689
-5.03441
-4.74526
-4.51716
-4.34664
-4.22951
-4.15944
-4.13244
-4.14003
-4.16881
-4.20931
-4.25841
-4.30801
-4.34946
-4.38018
-4.40344
-4.43328
-4.49236
-4.61011
-4.82551
-5.19482
-5.77899
-6.60061
-7.62486
-8.79548
-10.0633
-11.3922
-12.757
-14.1408
-15.5318
-16.9205
-18.2988
-19.6583
-20.9913
-22.2898
-23.549
-24.7575
-25.9051
-26.9802
-27.9722
-28.8695
-29.6619
-30.3384
-30.8898
-31.3071
-31.5838
-31.7144
-31.697
-31.5318
-31.221
-30.7678
-30.1771
-29.4555
-28.6109
-27.6521
-26.5891
-25.4323
-24.1931
-22.8827
-21.5129
-20.0957
-18.644
-17.171
-15.6892
-14.2104
-12.7453
-11.3032
-9.89268
-8.52077
-7.19339
-5.91515
-4.69004
-3.5221
-2.41522
-1.37283
-0.398494
0.505822
1.34098
2.1112
2.82405
3.4904
4.12155
4.72694
5.31236
5.88083
6.43249
6.96625
7.48025
7.9728
8.44225
8.88715
9.30611
9.69833
10.0629
10.3996
10.708
10.9881
11.2404
11.4659
11.6647
11.8377
11.9856
12.11
12.2121
12.2935
12.3556
12.4001
12.4285
12.4426
12.444
12.4347
12.4163
12.3905
12.3582
12.3205
12.2771
12.2286
12.1748
12.1156
12.0494
11.9741
11.8855
11.7741
11.6349
11.4243
-9.55712
-9.56623
-9.59919
-9.63018
-9.65891
-9.68878
-9.72086
-9.75491
-9.7919
-9.83219
-9.87699
-9.92655
-9.98219
-10.0445
-10.1149
-10.1941
-10.2833
-10.3832
-10.4952
-10.6196
-10.7578
-10.9098
-11.077
-11.2588
-11.4562
-11.6681
-11.8942
-12.132
-12.3794
-12.6332
-12.8909
-13.1471
-13.396
-13.6298
-13.8404
-14.0181
-14.1534
-14.2362
-14.2583
-14.2113
-14.0882
-13.8832
-13.5928
-13.2151
-12.7518
-12.2078
-11.5946
-10.9259
-10.217
-9.48595
-8.75207
-8.03378
-7.34879
-6.71254
-6.13779
-5.6337
-5.20562
-4.85351
-4.57498
-4.36543
-4.2205
-4.13382
-4.09998
-4.10715
-4.1422
-4.19789
-4.26888
-4.34292
-4.4117
-4.47144
-4.52563
-4.59123
-4.69169
-4.86141
-5.15026
-5.62041
-6.32398
-7.25663
-8.36803
-9.60255
-10.915
-12.2739
-13.6582
-15.0539
-16.4506
-17.8401
-19.2151
-20.5681
-21.8909
-23.1782
-24.4234
-25.6161
-26.7466
-27.8032
-28.7764
-29.6542
-30.4273
-31.0843
-31.6163
-32.0135
-32.2701
-32.3799
-32.3415
-32.1543
-31.8217
-31.3462
-30.7331
-29.9881
-29.1195
-28.1352
-27.045
-25.8589
-24.5885
-23.2459
-21.8441
-20.3968
-18.9176
-17.4197
-15.9158
-14.4176
-12.9354
-11.4789
-10.0561
-8.67436
-7.33931
-6.05574
-4.82788
-3.66018
-2.55608
-1.51952
-0.553277
0.341993
1.16935
1.9348
2.64759
3.3185
3.95783
4.57267
5.1673
5.74312
6.30002
6.83668
7.35193
7.84437
8.31294
8.75619
9.17332
9.56348
9.92615
10.261
10.5677
10.8465
11.0982
11.3232
11.5218
11.6947
11.8435
11.9694
12.0736
12.1571
12.2217
12.2689
12.3003
12.3174
12.3218
12.3151
12.2991
12.2749
12.2436
12.2057
12.1612
12.1101
12.0522
11.986
11.9098
11.8208
11.7151
11.584
11.4231
11.1955
-9.60612
-9.61544
-9.65129
-9.68322
-9.71216
-9.74277
-9.77606
-9.81181
-9.85103
-9.89424
-9.94271
-9.99697
-10.0585
-10.1281
-10.2073
-10.297
-10.3989
-10.5138
-10.6433
-10.7882
-10.95
-11.1292
-11.327
-11.5434
-11.7793
-12.0339
-12.3073
-12.5975
-12.903
-13.2199
-13.5448
-13.8718
-14.1947
-14.5052
-14.794
-15.0496
-15.2604
-15.4142
-15.5002
-15.5077
-15.4276
-15.2505
-14.9699
-14.582
-14.0876
-13.4908
-12.8023
-12.0385
-11.2202
-10.3705
-9.51324
-8.67156
-7.8672
-7.11848
-6.44066
-5.8449
-5.33815
-4.92179
-4.59259
-4.34562
-4.17587
-4.07572
-4.0368
-4.04595
-4.08871
-4.15612
-4.23945
-4.3283
-4.41586
-4.49835
-4.58174
-4.68222
-4.82565
-5.05216
-5.42071
-5.99236
-6.80048
-7.82224
-9.00284
-10.2894
-11.6407
-13.0288
-14.4351
-15.847
-17.2553
-18.6525
-20.0318
-21.3861
-22.7077
-23.9911
-25.2301
-26.4149
-27.5345
-28.5795
-29.539
-30.4033
-31.1613
-31.8035
-32.3195
-32.7008
-32.9403
-33.0331
-32.9767
-32.7718
-32.4204
-31.9257
-31.2915
-30.5238
-29.6295
-28.6165
-27.4945
-26.2747
-24.9702
-23.5943
-22.1612
-20.6851
-19.1798
-17.6584
-16.1338
-14.6175
-13.1199
-11.6503
-10.2166
-8.82617
-7.4853
-6.19913
-4.97221
-3.8086
-2.71151
-1.68417
-0.728136
0.158032
0.979236
1.74309
2.45934
3.13795
3.78716
4.41198
5.01519
5.59732
6.1581
6.69665
7.21228
7.70414
8.17129
8.61259
9.02758
9.41559
9.77629
10.1092
10.4142
10.6919
10.9431
11.1677
11.3664
11.5399
11.6901
11.8183
11.9253
12.0119
12.0799
12.1306
12.1658
12.1867
12.1949
12.1918
12.179
12.1574
12.1281
12.0909
12.0459
11.9926
11.9306
11.8576
11.7714
11.669
11.5466
11.3963
11.2144
10.9709
-9.65633
-9.6645
-9.70022
-9.7307
-9.7581
-9.78792
-9.82112
-9.85735
-9.89755
-9.94235
-9.99318
-10.0508
-10.1166
-10.1919
-10.2784
-10.3771
-10.4902
-10.6186
-10.7644
-10.9287
-11.1132
-11.3188
-11.5469
-11.7975
-12.0717
-12.3688
-12.6891
-13.0307
-13.3923
-13.7706
-14.1619
-14.56
-14.9582
-15.347
-15.7161
-16.0521
-16.3417
-16.57
-16.7232
-16.7883
-16.7541
-16.6077
-16.3396
-15.9426
-15.4156
-14.7625
-13.9946
-13.1305
-12.1955
-11.2183
-10.2295
-9.25853
-8.33234
-7.47263
-6.69571
-6.01251
-5.43073
-4.95348
-4.57628
-4.29463
-4.10172
-3.98742
-3.94117
-3.94837
-3.99432
-4.06683
-4.15398
-4.24821
-4.3444
-4.44265
-4.55056
-4.6834
-4.87353
-5.16498
-5.61463
-6.27935
-7.17607
-8.26955
-9.50669
-10.8381
-12.2259
-13.6441
-15.0755
-16.5083
-17.9341
-19.3456
-20.7362
-22.0989
-23.426
-24.7132
-25.9527
-27.1358
-28.2509
-29.2899
-30.2417
-31.0975
-31.8457
-32.4777
-32.9824
-33.3523
-33.5793
-33.6597
-33.5897
-33.3704
-33.0027
-32.4894
-31.8327
-31.0383
-30.1129
-29.0664
-27.9095
-26.6557
-25.3187
-23.9127
-22.4519
-20.9507
-19.4228
-17.8813
-16.3387
-14.8068
-13.2962
-11.816
-10.3745
-8.97902
-7.63612
-6.3511
-5.12871
-3.97235
-2.8849
-1.86792
-0.921526
-0.0422602
0.775944
1.54172
2.26427
2.95231
3.61163
4.24575
4.85612
5.44319
6.00659
6.54626
7.06173
7.55265
8.01799
8.45722
8.8699
9.25578
9.61439
9.9454
10.249
10.526
10.7766
11.0012
11.2006
11.3761
11.5287
11.6597
11.7699
11.8603
11.9323
11.9873
12.0264
12.0514
12.0638
12.065
12.0558
12.0374
12.0103
11.9743
11.9288
11.8736
11.8072
11.7275
11.6318
11.5172
11.3792
11.2112
11.0097
10.7509
-9.70326
-9.70904
-9.74181
-9.76869
-9.79284
-9.8203
-9.85204
-9.88753
-9.92749
-9.97259
-10.0243
-10.0837
-10.1523
-10.2315
-10.3232
-10.429
-10.5511
-10.6911
-10.8511
-11.0327
-11.2378
-11.4673
-11.7229
-12.0049
-12.3144
-12.6509
-13.0146
-13.4039
-13.8176
-14.2522
-14.7043
-15.1679
-15.6357
-16.0976
-16.5422
-16.9547
-17.3199
-17.6204
-17.8394
-17.9614
-17.9723
-17.8569
-17.6019
-17.1972
-16.6398
-15.9327
-15.0882
-14.1269
-13.078
-11.9759
-10.8576
-9.75858
-8.71184
-7.74423
-6.8753
-6.11483
-5.46738
-4.9348
-4.51304
-4.19702
-3.97788
-3.84463
-3.78571
-3.78418
-3.82523
-3.89364
-3.97647
-4.06762
-4.16612
-4.27622
-4.40689
-4.57663
-4.8182
-5.17879
-5.70975
-6.45616
-7.42478
-8.57699
-9.86239
-11.2347
-12.6584
-14.1085
-15.5685
-17.0272
-18.4761
-19.9078
-21.3159
-22.6931
-24.0332
-25.3293
-26.5763
-27.7629
-28.8798
-29.9177
-30.8677
-31.7195
-32.4636
-33.0896
-33.5885
-33.9511
-34.1709
-34.2422
-34.1616
-33.9282
-33.5427
-33.006
-32.3221
-31.4967
-30.5391
-29.4604
-28.273
-26.9905
-25.6269
-24.1963
-22.713
-21.1912
-19.6447
-18.0868
-16.5301
-14.9862
-13.466
-11.9789
-10.5334
-9.13676
-7.79557
-6.51515
-5.29989
-4.15271
-3.07534
-2.06798
-1.12899
-0.253747
0.564725
1.33519
2.06601
2.76384
3.43254
4.07437
4.69036
5.28092
5.84618
6.38636
6.90139
7.391
7.85441
8.2915
8.70197
9.08572
9.44235
9.77173
10.0745
10.3513
10.602
10.8275
11.0286
11.2066
11.3621
11.4962
11.6097
11.7039
11.7799
11.8392
11.8829
11.9126
11.9296
11.9352
11.9301
11.915
11.8901
11.8551
11.8093
11.7522
11.6818
11.5958
11.4913
11.3652
11.2132
11.0293
10.8105
10.538
-9.7414
-9.74381
-9.77114
-9.79256
-9.81201
-9.83584
-9.86486
-9.89838
-9.93692
-9.98117
-10.0326
-10.0923
-10.162
-10.2432
-10.3381
-10.4485
-10.5772
-10.7261
-10.8979
-11.0941
-11.3168
-11.5669
-11.8462
-12.1551
-12.4947
-12.8647
-13.2652
-13.6946
-14.1519
-14.634
-15.1376
-15.6565
-16.1835
-16.7079
-17.2173
-17.6959
-18.1269
-18.4903
-18.7676
-18.9399
-18.9909
-18.903
-18.6594
-18.2468
-17.6596
-16.9001
-15.9818
-14.9285
-13.7732
-12.5555
-11.3184
-10.1032
-8.94693
-7.87993
-6.924
-6.09089
-5.38595
-4.80771
-4.34947
-4.00285
-3.75719
-3.60164
-3.52304
-3.50401
-3.52934
-3.58474
-3.65914
-3.74797
-3.85216
-3.9781
-4.13609
-4.34781
-4.64518
-5.07457
-5.68227
-6.50109
-7.52965
-8.73223
-10.0614
-11.4737
-12.9344
-14.4196
-15.9124
-17.4018
-18.8787
-20.3361
-21.7671
-23.1651
-24.5225
-25.8341
-27.0932
-28.2889
-29.4126
-30.4545
-31.4073
-32.2603
-33.0049
-33.6297
-34.1269
-34.4865
-34.7015
-34.7641
-34.6704
-34.4192
-34.0118
-33.4493
-32.7377
-31.8844
-30.8998
-29.7952
-28.5837
-27.2786
-25.894
-24.444
-22.9429
-21.4049
-19.8441
-18.274
-16.7071
-15.1556
-13.6301
-12.1404
-10.6949
-9.30111
-7.96501
-6.6919
-5.48534
-4.34779
-3.27962
-2.2801
-1.34604
-0.472121
0.349445
1.12662
1.86647
2.5733
3.24989
3.89769
4.51791
5.11086
5.67737
6.21766
6.73202
7.22007
7.68165
8.11679
8.52535
8.90723
9.26234
9.59077
9.89334
10.1702
10.4218
10.6486
10.8517
11.0321
11.1904
11.3274
11.4443
11.5422
11.6226
11.6866
11.7355
11.7702
11.7921
11.8021
11.8013
11.7894
11.7667
11.7328
11.6871
11.6281
11.5538
11.4615
11.3486
11.2115
11.0464
10.8478
10.6134
10.3288
-9.76473
-9.76367
-9.78401
-9.79878
-9.81235
-9.8314
-9.85673
-9.88735
-9.92349
-9.96592
-10.016
-10.0749
-10.1442
-10.2255
-10.3213
-10.4337
-10.5659
-10.7206
-10.9008
-11.1084
-11.3449
-11.6115
-11.9096
-12.2399
-12.6032
-12.9995
-13.4285
-13.8889
-14.3793
-14.897
-15.439
-15.9994
-16.5712
-17.1436
-17.7029
-18.2329
-18.7147
-19.1272
-19.4494
-19.6592
-19.7387
-19.6691
-19.4304
-19.0063
-18.389
-17.5793
-16.5911
-15.4502
-14.1946
-12.8682
-11.5198
-10.1958
-8.93846
-7.78067
-6.74599
-5.84849
-5.09407
-4.47861
-3.99365
-3.62715
-3.36412
-3.19175
-3.09478
-3.05792
-3.06698
-3.11121
-3.18301
-3.27797
-3.3973
-3.54698
-3.73863
-3.99546
-4.35049
-4.84807
-5.52888
-6.41442
-7.49759
-8.7467
-10.1179
-11.57
-13.0694
-14.5923
-16.1217
-17.6459
-19.1557
-20.644
-22.1034
-23.5273
-24.9077
-26.2402
-27.5162
-28.7267
-29.8615
-30.9129
-31.8723
-32.7313
-33.4793
-34.1063
-34.6016
-34.956
-35.1608
-35.2094
-35.0975
-34.8254
-34.3947
-33.8086
-33.0732
-32.1972
-31.191
-30.0664
-28.8363
-27.5141
-26.1137
-24.6493
-23.1354
-21.5864
-20.0164
-18.4391