/*--------------------------------*- C++ -*----------------------------------*\
| =========                 |                                                 |
| \\      /  F ield         | OpenFOAM: The Open Source CFD Toolbox           |
|  \\    /   O peration     | Version:  4.x                                   |
|   \\  /    A nd           | Web:      www.OpenFOAM.org                      |
|    \\/     M anipulation  |                                                 |
\*---------------------------------------------------------------------------*/
FoamFile
{
    version     2.0;
    format      ascii;
    class       surfaceScalarField;
    location    "100";
    object      phi;
}
// * * * * * * * * * * * * * * * * * * * * * * * * * * * * * * * * * * * * * //

dimensions      [0 3 -1 0 0 0 0];

internalField   nonuniform List<scalar> 
24170
(
2.99729e-06
1.36589e-07
2.85454e-06
1.42688e-07
2.72608e-06
1.28387e-07
2.61102e-06
1.15002e-07
2.50839e-06
1.02569e-07
2.41833e-06
8.9988e-08
2.34039e-06
7.78726e-08
2.27348e-06
6.68315e-08
2.21607e-06
5.73283e-08
2.16655e-06
4.94336e-08
2.1239e-06
4.25702e-08
2.08742e-06
3.63928e-08
2.05665e-06
3.06812e-08
2.03135e-06
2.52057e-08
2.0116e-06
1.96546e-08
1.99829e-06
1.31998e-08
1.9926e-06
5.56599e-09
-1.20058e-08
2.00444e-06
3.52069e-06
7.2327e-08
3.55228e-06
1.11034e-07
3.56777e-06
1.12835e-07
3.57024e-06
1.12465e-07
3.5627e-06
1.10057e-07
3.54802e-06
1.046e-07
3.52853e-06
9.72882e-08
3.50591e-06
8.93819e-08
3.48169e-06
8.14824e-08
3.45717e-06
7.38832e-08
3.43301e-06
6.66521e-08
3.40964e-06
5.96851e-08
3.38739e-06
5.28536e-08
3.36655e-06
4.59627e-08
3.34746e-06
3.86611e-08
3.33039e-06
3.01784e-08
3.31652e-06
1.93417e-08
2.39206e-09
3.30198e-06
3.83186e-06
5.26532e-08
3.84992e-06
9.29289e-08
3.86552e-06
9.72004e-08
3.87893e-06
9.90068e-08
3.88991e-06
9.90429e-08
3.89838e-06
9.60791e-08
3.9045e-06
9.11084e-08
3.90851e-06
8.53171e-08
3.91071e-06
7.92218e-08
3.91149e-06
7.30505e-08
3.91119e-06
6.68951e-08
3.9101e-06
6.07181e-08
3.90846e-06
5.44271e-08
3.90651e-06
4.78464e-08
3.90445e-06
4.06556e-08
3.90233e-06
3.22187e-08
3.89961e-06
2.19772e-08
7.96757e-09
3.89391e-06
4.21595e-06
4.12519e-08
4.22862e-06
8.02146e-08
4.23889e-06
8.68892e-08
4.24826e-06
8.95982e-08
4.25684e-06
9.04242e-08
4.2645e-06
8.83682e-08
4.27129e-06
8.42675e-08
4.27731e-06
7.92508e-08
4.28262e-06
7.38516e-08
4.28734e-06
6.82789e-08
4.29159e-06
6.25982e-08
4.29545e-06
5.6796e-08
4.29904e-06
5.07849e-08
4.30241e-06
4.4411e-08
4.30559e-06
3.74118e-08
4.30836e-06
2.93731e-08
4.31017e-06
2.00845e-08
8.6394e-09
4.3094e-06
4.64572e-06
3.28289e-08
4.65685e-06
6.90618e-08
4.66559e-06
7.81174e-08
4.67358e-06
8.15799e-08
4.6811e-06
8.2867e-08
4.68803e-06
8.1403e-08
4.69436e-06
7.78951e-08
4.7002e-06
7.33767e-08
4.70561e-06
6.8395e-08
4.71069e-06
6.31581e-08
4.71551e-06
5.77403e-08
4.72012e-06
5.21407e-08
4.72456e-06
4.62953e-08
4.72884e-06
4.00789e-08
4.73289e-06
3.33155e-08
4.73642e-06
2.5776e-08
4.73897e-06
1.74604e-08
8.07802e-09
4.73945e-06
5.12119e-06
2.62268e-08
5.13128e-06
5.89307e-08
5.13958e-06
6.9781e-08
5.14722e-06
7.39001e-08
5.15453e-06
7.55262e-08
5.16133e-06
7.45531e-08
5.16762e-06
7.15589e-08
5.17349e-06
6.747e-08
5.179e-06
6.28349e-08
5.18425e-06
5.78683e-08
5.18928e-06
5.26641e-08
5.19414e-06
4.72376e-08
5.19883e-06
4.15575e-08
5.20332e-06
3.55408e-08
5.20749e-06
2.90962e-08
5.21106e-06
2.21416e-08
5.21366e-06
1.47993e-08
7.0609e-09
5.2146e-06
5.64624e-06
2.09907e-08
5.65533e-06
4.98114e-08
5.66344e-06
6.16368e-08
5.67102e-06
6.62884e-08
5.67835e-06
6.81607e-08
5.68527e-06
6.75928e-08
5.69174e-06
6.50555e-08
5.6978e-06
6.13634e-08
5.70355e-06
5.70528e-08
5.70903e-06
5.23494e-08
5.71429e-06
4.73623e-08
5.71936e-06
4.21295e-08
5.72422e-06
3.66546e-08
5.72881e-06
3.09029e-08
5.733e-06
2.48579e-08
5.73655e-06
1.8534e-08
5.73918e-06
1.21073e-08
5.69289e-09
5.74049e-06
4.40922e-06
1.78739e-08
4.41511e-06
4.3883e-08
4.42089e-06
5.5818e-08
4.42635e-06
6.07872e-08
4.43164e-06
6.28194e-08
4.43672e-06
6.24736e-08
4.44151e-06
6.02184e-08
4.44603e-06
5.67953e-08
4.45033e-06
5.27141e-08
4.45443e-06
4.82031e-08
4.45837e-06
4.3385e-08
4.46214e-06
3.83141e-08
4.46574e-06
3.30186e-08
4.4691e-06
2.74964e-08
4.47214e-06
2.17693e-08
4.47472e-06
1.59026e-08
4.4767e-06
1.00823e-08
4.44634e-09
4.47788e-06
5.14272e-06
1.50014e-08
5.14855e-06
3.80252e-08
5.15462e-06
4.97137e-08
5.16051e-06
5.48613e-08
5.16629e-06
5.69934e-08
5.17189e-06
5.68409e-08
5.17721e-06
5.4855e-08
5.18226e-06
5.1702e-08
5.18708e-06
4.78582e-08
5.19168e-06
4.3561e-08
5.19609e-06
3.89389e-08
5.2003e-06
3.40686e-08
5.20428e-06
2.8997e-08
5.20798e-06
2.37554e-08
5.2113e-06
1.83983e-08
5.21414e-06
1.30213e-08
5.21637e-06
7.80046e-09
2.88714e-09
5.21788e-06
5.9984e-06
1.23893e-08
6.00407e-06
3.23092e-08
6.01036e-06
4.3385e-08
6.01664e-06
4.85381e-08
6.0229e-06
5.06873e-08
6.02901e-06
5.06795e-08
6.03487e-06
4.89465e-08
6.04047e-06
4.60592e-08
6.04583e-06
4.24642e-08
6.05095e-06
3.84006e-08
6.05584e-06
3.40101e-08
6.06048e-06
2.93803e-08
6.06486e-06
2.45821e-08
6.0689e-06
1.96736e-08
6.07252e-06
1.473e-08
6.07564e-06
9.86167e-09
6.07817e-06
5.22353e-09
9.48654e-10
6.08006e-06
6.99661e-06
1.00367e-08
7.00204e-06
2.68352e-08
7.00847e-06
3.69192e-08
7.01508e-06
4.18764e-08
7.02178e-06
4.39459e-08
7.0284e-06
4.40141e-08
7.03481e-06
4.24952e-08
7.04096e-06
3.98671e-08
7.04685e-06
3.65282e-08
7.05249e-06
3.27241e-08
7.05786e-06
2.85975e-08
7.06294e-06
2.4255e-08
7.0677e-06
1.97799e-08
7.07208e-06
1.5249e-08
7.07602e-06
1.07484e-08
7.07946e-06
6.39072e-09
7.08234e-06
2.28928e-09
-1.41725e-09
7.08467e-06
8.16111e-06
7.93193e-09
8.16625e-06
2.16544e-08
8.17271e-06
3.04085e-08
8.1796e-06
3.49391e-08
8.18669e-06
3.68184e-08
8.19377e-06
3.68779e-08
8.20071e-06
3.55228e-08
8.2074e-06
3.31346e-08
8.21382e-06
3.0062e-08
8.21997e-06
2.65379e-08
8.22581e-06
2.27149e-08
8.23132e-06
1.87028e-08
8.23647e-06
1.4593e-08
8.2412e-06
1.04743e-08
8.24548e-06
6.43173e-09
8.24927e-06
2.56358e-09
8.25257e-06
-1.04283e-09
-4.26905e-09
8.25537e-06
9.51961e-06
6.0371e-09
9.52442e-06
1.67967e-08
9.53083e-06
2.39496e-08
9.53792e-06
2.78064e-08
9.54532e-06
2.93647e-08
9.55283e-06
2.93282e-08
9.56024e-06
2.80662e-08
9.56745e-06
2.58905e-08
9.57439e-06
2.30843e-08
9.58103e-06
1.9863e-08
9.58733e-06
1.63743e-08
9.59327e-06
1.27272e-08
9.5988e-06
9.01983e-09
9.60391e-06
5.33049e-09
9.60856e-06
1.7451e-09
9.61274e-06
-1.66122e-09
9.61649e-06
-4.82833e-09
-7.63695e-09
9.61982e-06
1.11044e-05
4.31791e-09
1.11089e-05
1.22499e-08
1.11152e-05
1.76206e-08
1.11224e-05
2.05647e-08
1.113e-05
2.16612e-08
1.11379e-05
2.14265e-08
1.11457e-05
2.01854e-08
1.11534e-05
1.81793e-08
1.11608e-05
1.56319e-08
1.11679e-05
1.27244e-08
1.11747e-05
9.59203e-09
1.1181e-05
6.33899e-09
1.1187e-05
3.04908e-09
1.11925e-05
-1.99788e-10
1.11975e-05
-3.34339e-09
1.12021e-05
-6.316e-09
1.12063e-05
-9.09214e-09
-1.15355e-08
1.12102e-05
1.29532e-05
2.73244e-09
1.29574e-05
7.97207e-09
1.29636e-05
1.14527e-08
1.29708e-05
1.32839e-08
1.29786e-05
1.37678e-08
1.29868e-05
1.32385e-08
1.2995e-05
1.19415e-08
1.30031e-05
1.00569e-08
1.30109e-05
7.75027e-09
1.30184e-05
5.15986e-09
1.30256e-05
2.39791e-09
1.30323e-05
-4.48731e-10
1.30387e-05
-3.30809e-09
1.30445e-05
-6.11942e-09
1.305e-05
-8.83177e-09
1.3055e-05
-1.13995e-08
1.30597e-05
-1.38115e-08
-1.59306e-08
1.30641e-05
1.51099e-05
1.24101e-09
1.5114e-05
3.87951e-09
1.512e-05
5.4048e-09
1.51272e-05
5.97332e-09
1.51353e-05
5.71e-09
1.51437e-05
4.79672e-09
1.51522e-05
3.37621e-09
1.51606e-05
1.57339e-09
1.51688e-05
-5.13798e-10
1.51768e-05
-2.78538e-09
1.51843e-05
-5.16947e-09
1.51914e-05
-7.59614e-09
1.51981e-05
-1.00186e-08
1.52043e-05
-1.23887e-08
1.52101e-05
-1.46758e-08
1.52155e-05
-1.68465e-08
1.52205e-05
-1.89023e-08
-2.07061e-08
1.52253e-05
1.76259e-05
-2.08087e-10
1.76299e-05
-1.82161e-10
1.76359e-05
-6.69096e-10
1.76433e-05
-1.47945e-09
1.76516e-05
-2.58248e-09
1.76603e-05
-3.94815e-09
1.76691e-05
-5.52557e-09
1.76779e-05
-7.27132e-09
1.76865e-05
-9.13776e-09
1.76947e-05
-1.10824e-08
1.77026e-05
-1.30655e-08
1.771e-05
-1.5052e-08
1.7717e-05
-1.70132e-08
1.77235e-05
-1.89227e-08
1.77295e-05
-2.07627e-08
1.77351e-05
-2.25144e-08
1.77404e-05
-2.41847e-08
-2.56474e-08
1.77453e-05
1.78275e-05
-1.53764e-09
1.78312e-05
-3.95194e-09
1.78368e-05
-6.31228e-09
1.78437e-05
-8.39143e-09
1.78513e-05
-1.02692e-08
1.78593e-05
-1.20361e-08
1.78675e-05
-1.37427e-08
1.78756e-05
-1.54131e-08
1.78835e-05
-1.70513e-08
1.7891e-05
-1.86686e-08
1.78981e-05
-2.02525e-08
1.79049e-05
-2.1808e-08
1.79111e-05
-2.33122e-08
1.79169e-05
-2.47715e-08
1.79223e-05
-2.61625e-08
1.79272e-05
-2.74947e-08
1.79318e-05
-2.87589e-08
-2.98628e-08
1.7936e-05
1.58825e-05
-2.74353e-09
1.58859e-05
-7.37677e-09
1.58909e-05
-1.135e-08
1.58969e-05
-1.44663e-08
1.59035e-05
-1.6926e-08
1.59103e-05
-1.89676e-08
1.59173e-05
-2.07235e-08
1.59241e-05
-2.2268e-08
1.59306e-05
-2.36652e-08
1.59369e-05
-2.49487e-08
1.59427e-05
-2.61612e-08
1.59482e-05
-2.73007e-08
1.59532e-05
-2.83932e-08
1.59579e-05
-2.94219e-08
1.59621e-05
-3.04089e-08
1.59659e-05
-3.13341e-08
1.59693e-05
-3.22245e-08
-3.29729e-08
1.59724e-05
1.41499e-05
-3.95969e-09
1.41532e-05
-1.0771e-08
1.4158e-05
-1.62031e-08
1.41636e-05
-2.0125e-08
1.41696e-05
-2.29908e-08
1.41758e-05
-2.51818e-08
1.41819e-05
-2.68999e-08
1.41878e-05
-2.82614e-08
1.41935e-05
-2.93699e-08
1.41988e-05
-3.03179e-08
1.42038e-05
-3.11442e-08
1.42083e-05
-3.1894e-08
1.42124e-05
-3.2573e-08
1.42162e-05
-3.32092e-08
1.42195e-05
-3.37961e-08
1.42225e-05
-3.43527e-08
1.42252e-05
-3.48732e-08
-3.52982e-08
1.42274e-05
1.26063e-05
-5.28962e-09
1.26099e-05
-1.43954e-08
1.26148e-05
-2.11273e-08
1.26203e-05
-2.56272e-08
1.26259e-05
-2.87097e-08
1.26316e-05
-3.09377e-08
1.26372e-05
-3.25245e-08
1.26425e-05
-3.36374e-08
1.26475e-05
-3.44316e-08
1.26522e-05
-3.50159e-08
1.26565e-05
-3.54629e-08
1.26604e-05
-3.58166e-08
1.26638e-05
-3.61043e-08
1.2667e-05
-3.63534e-08
1.26697e-05
-3.65689e-08
1.26721e-05
-3.67678e-08
1.26741e-05
-3.69477e-08
-3.70579e-08
1.26759e-05
1.12314e-05
-6.86761e-09
1.12354e-05
-1.84745e-08
1.12406e-05
-2.63016e-08
1.1246e-05
-3.10801e-08
1.12514e-05
-3.42227e-08
1.12569e-05
-3.63775e-08
1.1262e-05
-3.77577e-08
1.12669e-05
-3.85619e-08
1.12714e-05
-3.90012e-08
1.12756e-05
-3.92183e-08
1.12794e-05
-3.92845e-08
1.12828e-05
-3.92508e-08
1.12858e-05
-3.91609e-08
1.12884e-05
-3.90346e-08
1.12907e-05
-3.89032e-08
1.12927e-05
-3.87587e-08
1.12943e-05
-3.86272e-08
-3.84382e-08
1.12957e-05
1.00066e-05
-8.86381e-09
1.00113e-05
-2.32206e-08
1.00168e-05
-3.1802e-08
1.00222e-05
-3.65573e-08
1.00276e-05
-3.96103e-08
1.00328e-05
-4.16017e-08
1.00377e-05
-4.26838e-08
1.00422e-05
-4.31339e-08
1.00464e-05
-4.32138e-08
1.00502e-05
-4.30547e-08
1.00536e-05
-4.27442e-08
1.00567e-05
-4.23348e-08
1.00594e-05
-4.18769e-08
1.00617e-05
-4.14036e-08
1.00637e-05
-4.09335e-08
1.00654e-05
-4.04806e-08
1.00668e-05
-4.00431e-08
-3.95933e-08
1.00679e-05
8.91578e-06
-1.1555e-08
8.92133e-06
-2.87867e-08
8.92714e-06
-3.76335e-08
8.93263e-06
-4.20657e-08
8.93794e-06
-4.49473e-08
8.943e-06
-4.66842e-08
8.9477e-06
-4.74056e-08
8.95201e-06
-4.74735e-08
8.95595e-06
-4.71751e-08
8.95952e-06
-4.66509e-08
8.96271e-06
-4.59674e-08
8.96554e-06
-4.51942e-08
8.96802e-06
-4.43817e-08
8.97015e-06
-4.35722e-08
8.97197e-06
-4.27847e-08
8.9735e-06
-4.20352e-08
8.97475e-06
-4.13282e-08
-4.06229e-08
8.97576e-06
7.94443e-06
-1.53242e-08
7.9509e-06
-3.52769e-08
7.95704e-06
-4.37846e-08
7.96264e-06
-4.7692e-08
7.96801e-06
-5.03404e-08
7.97306e-06
-5.17475e-08
7.97768e-06
-5.20494e-08
7.98191e-06
-5.17137e-08
7.98575e-06
-5.10441e-08
7.98922e-06
-5.01417e-08
7.99232e-06
-4.90839e-08
7.99505e-06
-4.79421e-08
7.99742e-06
-4.67784e-08
7.99946e-06
-4.56376e-08
8.00119e-06
-4.45454e-08
8.00264e-06
-4.35136e-08
8.00384e-06
-4.25493e-08
-4.16087e-08
8.00479e-06
7.07965e-06
-2.06443e-08
7.08721e-06
-4.28518e-08
7.09385e-06
-5.04473e-08
7.09983e-06
-5.36852e-08
7.10549e-06
-5.60173e-08
7.11073e-06
-5.70027e-08
7.11549e-06
-5.68313e-08
7.11982e-06
-5.60608e-08
7.12375e-06
-5.49899e-08
7.12729e-06
-5.36923e-08
7.13043e-06
-5.22391e-08
7.13318e-06
-5.07118e-08
7.13556e-06
-4.91778e-08
7.13759e-06
-4.76954e-08
7.13931e-06
-4.62851e-08
7.14075e-06
-4.49728e-08
7.14193e-06
-4.37632e-08
-4.26113e-08
7.14291e-06
6.31008e-06
-2.82171e-08
6.3195e-06
-5.22857e-08
6.3274e-06
-5.83628e-08
6.3345e-06
-6.07923e-08
6.34107e-06
-6.26017e-08
6.34701e-06
-6.29685e-08
6.35235e-06
-6.21843e-08
6.35716e-06
-6.08872e-08
6.36148e-06
-5.93245e-08
6.36533e-06
-5.75524e-08
6.3687e-06
-5.56293e-08
6.37162e-06
-5.364e-08
6.37409e-06
-5.16745e-08
6.37616e-06
-4.97781e-08
6.37786e-06
-4.8e-08
6.37923e-06
-4.63633e-08
6.38032e-06
-4.48748e-08
-4.34608e-08
6.38114e-06
5.62827e-06
-4.1588e-08
5.64236e-06
-6.6401e-08
5.65403e-06
-7.00471e-08
5.66449e-06
-7.12618e-08
5.6738e-06
-7.19326e-08
5.68186e-06
-7.10417e-08
5.68877e-06
-6.91148e-08
5.69467e-06
-6.6813e-08
5.69966e-06
-6.43236e-08
5.70376e-06
-6.16666e-08
5.70702e-06
-5.88981e-08
5.70947e-06
-5.61143e-08
5.71117e-06
-5.33932e-08
5.7122e-06
-5.08206e-08
5.71263e-06
-4.84374e-08
5.71255e-06
-4.6302e-08
5.71208e-06
-4.44269e-08
-4.29318e-08
5.71153e-06
5.04108e-06
-8.03594e-08
5.07274e-06
-9.80951e-08
5.09428e-06
-9.15976e-08
5.10914e-06
-8.61443e-08
5.11833e-06
-8.11359e-08
5.12287e-06
-7.56124e-08
5.12374e-06
-7.0004e-08
5.12163e-06
-6.47306e-08
5.11708e-06
-5.97862e-08
5.11049e-06
-5.5092e-08
5.10223e-06
-5.06529e-08
5.09261e-06
-4.65162e-08
5.08191e-06
-4.27151e-08
5.07039e-06
-3.93112e-08
5.05837e-06
-3.64305e-08
5.04617e-06
-3.41207e-08
5.03401e-06
-3.22848e-08
-3.12676e-08
5.02232e-06
4.37619e-06
4.27809e-06
4.18649e-06
4.10035e-06
4.01921e-06
3.94359e-06
3.87359e-06
3.80885e-06
3.74906e-06
3.69397e-06
3.64331e-06
3.59679e-06
3.55407e-06
3.51476e-06
3.47833e-06
3.4442e-06
3.41191e-06
3.38064e-06
-3.33678e-08
3.7269e-08
-5.9086e-08
3.14572e-08
-1.09211e-07
5.41742e-08
-1.69028e-07
6.33294e-08
-2.3475e-07
6.83168e-08
-3.02214e-07
6.99798e-08
-3.69982e-07
6.95998e-08
-4.36197e-07
6.82161e-08
-5.01656e-07
6.67999e-08
-5.65807e-07
6.58878e-08
-6.30712e-07
6.58547e-08
-6.9585e-07
6.67663e-08
-7.64028e-07
6.89955e-08
-8.3486e-07
7.24628e-08
-9.11027e-07
7.68486e-08
-9.9116e-07
8.18415e-08
-1.07741e-06
8.69925e-08
-1.16755e-06
9.19506e-08
-1.26307e-06
9.62396e-08
-1.36077e-06
9.95419e-08
-1.46173e-06
1.01532e-07
-1.56206e-06
1.02102e-07
-1.66272e-06
1.01097e-07
-1.75962e-06
9.85238e-08
-1.85395e-06
9.43968e-08
-1.94167e-06
8.90964e-08
-2.02467e-06
8.28392e-08
-2.09951e-06
7.59238e-08
-2.16855e-06
6.84584e-08
-2.2284e-06
6.06625e-08
-2.2818e-06
5.26217e-08
-2.32557e-06
4.43914e-08
-2.36238e-06
3.5916e-08
-2.3894e-06
2.7431e-08
-2.40904e-06
1.86417e-08
-2.41887e-06
9.98988e-09
-2.4211e-06
1.2037e-09
-2.41303e-06
-8.07221e-09
-2.39582e-06
-1.82639e-08
-2.36657e-06
-2.92476e-08
-2.3267e-06
-4.08708e-08
-2.27336e-06
-5.32336e-08
-2.20698e-06
-6.73278e-08
-2.12355e-06
-8.33656e-08
-2.02472e-06
-1.00033e-07
-1.90977e-06
-1.15087e-07
-1.78091e-06
-1.30361e-07
-1.63253e-06
-1.49009e-07
-1.46577e-06
-1.68872e-07
-1.28571e-06
-1.8123e-07
-1.09953e-06
-1.89103e-07
-8.95684e-07
-2.05736e-07
-6.56354e-07
-2.42691e-07
-3.86232e-07
-2.7158e-07
-1.13681e-07
-2.75025e-07
1.52445e-07
-2.67307e-07
4.06024e-07
-2.55744e-07
6.46264e-07
-2.41363e-07
8.67264e-07
-2.22951e-07
1.06525e-06
-1.99035e-07
1.22941e-06
-1.65958e-07
1.35039e-06
-1.21965e-07
1.41981e-06
-7.11853e-08
1.4401e-06
-2.12394e-08
1.41453e-06
2.36802e-08
1.35212e-06
6.13181e-08
1.25974e-06
9.0136e-08
1.15092e-06
1.07361e-07
1.0382e-06
1.09861e-07
9.30309e-07
1.05623e-07
8.19605e-07
1.06765e-07
6.97577e-07
1.17876e-07
5.66402e-07
1.2422e-07
4.48359e-07
1.10659e-07
3.59876e-07
8.00886e-08
2.96069e-07
5.58754e-08
2.50865e-07
3.87149e-08
2.45021e-07
-6.64229e-10
2.96069e-07
-5.55736e-08
3.54383e-07
-6.40529e-08
3.85855e-07
-3.52668e-08
3.94553e-07
-1.37584e-08
3.45122e-07
4.68154e-08
2.5181e-07
8.99192e-08
1.35786e-09
2.49354e-07
-5.3105e-07
5.30622e-07
-1.22159e-06
6.89697e-07
-1.96464e-06
7.41814e-07
-2.69085e-06
7.25433e-07
-3.36464e-06
6.72789e-07
-3.96921e-06
6.03132e-07
-4.50033e-06
5.29206e-07
-4.96119e-06
4.58661e-07
-5.35873e-06
3.94942e-07
-5.70059e-06
3.39127e-07
-5.99397e-06
2.90272e-07
-6.24399e-06
2.47174e-07
-6.45545e-06
2.08534e-07
-6.63168e-06
1.73934e-07
-6.77611e-06
1.42177e-07
-6.89044e-06
1.12814e-07
-6.97696e-06
8.50195e-08
-7.03691e-06
5.91535e-08
-7.07287e-06
3.51275e-08
-7.08708e-06
1.40327e-08
-7.08323e-06
-4.09771e-09
-7.06276e-06
-2.01156e-08
-7.02711e-06
-3.53716e-08
-6.97658e-06
-4.97206e-08
-6.91245e-06
-6.33966e-08
-6.83481e-06
-7.64415e-08
-6.74425e-06
-8.94156e-08
-6.64114e-06
-1.01604e-07
-6.52654e-06
-1.13116e-07
-6.40088e-06
-1.23904e-07
-6.26502e-06
-1.34113e-07
-6.11968e-06
-1.43413e-07
-5.96598e-06
-1.51761e-07
-5.8048e-06
-1.59165e-07
-5.63709e-06
-1.65663e-07
-5.46392e-06
-1.71144e-07
-5.2862e-06
-1.7566e-07
-5.10488e-06
-1.79351e-07
-4.92099e-06
-1.81886e-07
-4.73564e-06
-1.83512e-07
-4.54962e-06
-1.84143e-07
-4.364e-06
-1.83975e-07
-4.17944e-06
-1.82877e-07
-3.99679e-06
-1.81196e-07
-3.8164e-06
-1.7897e-07
-3.63884e-06
-1.76394e-07
-3.46417e-06
-1.73445e-07
-3.29257e-06
-1.70329e-07
-3.12404e-06
-1.66928e-07
-2.95895e-06
-1.63476e-07
-2.79727e-06
-1.59988e-07
-2.63937e-06
-1.5652e-07
-2.48468e-06
-1.53216e-07
-2.33271e-06
-1.504e-07
-2.18223e-06
-1.48415e-07
-2.03273e-06
-1.47423e-07
-1.88298e-06
-1.47471e-07
-1.73221e-06
-1.49016e-07
-1.57966e-06
-1.50902e-07
-1.42559e-06
-1.53178e-07
-1.26965e-06
-1.55398e-07
-1.1126e-06
-1.57447e-07
-9.54492e-07
-1.58899e-07
-7.95692e-07
-1.59928e-07
-6.36289e-07
-1.60315e-07
-4.77021e-07
-1.59925e-07
-3.18379e-07
-1.58877e-07
-1.59194e-07
-1.59103e-07
4.63483e-09
-1.63321e-07
1.7356e-07
-1.68194e-07
3.4338e-07
-1.68862e-07
5.11227e-07
-1.66799e-07
6.76296e-07
-1.63908e-07
8.38157e-07
-1.60699e-07
9.96243e-07
-1.56872e-07
1.15011e-06
-1.52727e-07
1.29947e-06
-1.48193e-07
1.44407e-06
-1.436e-07
1.58393e-06
-1.38847e-07
1.71874e-06
-1.34041e-07
1.84908e-06
-1.29528e-07
1.9745e-06
-1.24887e-07
2.09509e-06
-1.1996e-07
2.21082e-06
-1.15331e-07
2.3222e-06
-1.10822e-07
2.42872e-06
-1.06094e-07
2.52988e-06
-1.00601e-07
2.62515e-06
-9.47695e-08
2.71393e-06
-8.82734e-08
2.79485e-06
-8.04634e-08
2.86516e-06
-6.99539e-08
2.92104e-06
-5.56163e-08
2.9531e-06
-3.18467e-08
2.92135e-06
3.18839e-08
1.36055e-07
2.78533e-06
-5.88057e-08
9.97934e-08
-1.46072e-07
1.23516e-07
-2.19924e-07
1.31246e-07
-2.8682e-07
1.32991e-07
-3.49451e-07
1.33038e-07
-4.10191e-07
1.32714e-07
-4.71136e-07
1.32046e-07
-5.32894e-07
1.31562e-07
-5.96829e-07
1.31858e-07
-6.62835e-07
1.33248e-07
-7.31889e-07
1.35757e-07
-8.0322e-07
1.39296e-07
-8.77316e-07
1.43799e-07
-9.52811e-07
1.49148e-07
-1.03036e-06
1.55033e-07
-1.10837e-06
1.61001e-07
-1.18727e-06
1.66534e-07
-1.26517e-06
1.71073e-07
-1.34244e-06
1.74105e-07
-1.41701e-06
1.75256e-07
-1.4893e-06
1.74345e-07
-1.55743e-06
1.71387e-07
-1.62236e-06
1.66444e-07
-1.68252e-06
1.59667e-07
-1.73924e-06
1.51367e-07
-1.79129e-06
1.41991e-07
-1.84022e-06
1.31826e-07
-1.88479e-06
1.21104e-07
-1.92642e-06
1.09938e-07
-1.96385e-06
9.84997e-08
-1.99827e-06
8.67634e-08
-2.02804e-06
7.43933e-08
-2.05372e-06
6.12422e-08
-2.07347e-06
4.72383e-08
-2.08726e-06
3.19901e-08
-2.09263e-06
1.52335e-08
-2.08856e-06
-3.3839e-09
-2.07297e-06
-2.38586e-08
-2.04548e-06
-4.6285e-08
-2.00429e-06
-7.06902e-08
-1.94865e-06
-9.69825e-08
-1.87706e-06
-1.25004e-07
-1.79006e-06
-1.54798e-07
-1.68729e-06
-1.8639e-07
-1.56845e-06
-2.19421e-07
-1.43123e-06
-2.5266e-07
-1.27667e-06
-2.85612e-07
-1.1075e-06
-3.18808e-07
-9.25234e-07
-3.5203e-07
-7.25061e-07
-3.82208e-07
-5.06201e-07
-4.08913e-07
-2.79854e-07
-4.32898e-07
-6.91078e-08
-4.54335e-07
1.27173e-07
-4.68569e-07
3.22486e-07
-4.71162e-07
5.17428e-07
-4.62914e-07
7.06259e-07
-4.45399e-07
8.84832e-07
-4.20593e-07
1.05173e-06
-3.90683e-07
1.20844e-06
-3.5642e-07
1.35854e-06
-3.16953e-07
1.50536e-06
-2.69535e-07
1.64414e-06
-2.10923e-07
1.76202e-06
-1.39966e-07
1.84408e-06
-5.94083e-08
1.88038e-06
2.40633e-08
1.8687e-06
1.00609e-07
1.81327e-06
1.61598e-07
1.71457e-06
2.07062e-07
1.57669e-06
2.41892e-07
1.41689e-06
2.64507e-07
1.26582e-06
2.66662e-07
1.14077e-06
2.46421e-07
1.02849e-06
2.1971e-07
9.17723e-07
1.87472e-07
8.50056e-07
1.20527e-07
8.77066e-07
9.18848e-09
9.73259e-07
-9.93128e-08
1.06061e-06
-1.45314e-07
1.10487e-06
-1.1112e-07
9.41674e-07
1.25516e-07
4.98004e-07
4.27975e-07
-2.90348e-07
8.34222e-07
-1.33007e-06
1.12899e-06
-2.38085e-06
1.2996e-06
-3.23503e-06
1.38417e-06
-3.91482e-06
1.36885e-06
-4.45624e-06
1.28264e-06
-4.8886e-06
1.15716e-06
-5.23462e-06
1.0182e-06
-5.51642e-06
8.83805e-07
-5.74946e-06
7.60822e-07
-5.94606e-06
6.53391e-07
-6.11335e-06
5.60206e-07
-6.25671e-06
4.80001e-07
-6.37916e-06
4.10279e-07
-6.48373e-06
3.49097e-07
-6.5721e-06
2.94655e-07
-6.64599e-06
2.45649e-07
-6.70621e-06
2.0075e-07
-6.75418e-06
1.59256e-07
-6.79063e-06
1.20447e-07
-6.81622e-06
8.38426e-08
-6.83056e-06
4.9e-08
-6.83276e-06
1.58671e-08
-6.82087e-06
-1.5974e-08
-6.79424e-06
-4.66275e-08
-6.75291e-06
-7.62687e-08
-6.69736e-06
-1.04728e-07
-6.62819e-06
-1.3177e-07
-6.54592e-06
-1.57803e-07
-6.45104e-06
-1.8319e-07
-6.34414e-06
-2.07293e-07
-6.22606e-06
-2.29843e-07
-6.09756e-06
-2.50959e-07
-5.95948e-06
-2.7064e-07
-5.81267e-06
-2.88613e-07
-5.65797e-06
-3.04795e-07
-5.49622e-06
-3.19195e-07
-5.32846e-06
-3.31709e-07
-5.15553e-06
-3.42332e-07
-4.97825e-06
-3.51231e-07
-4.79743e-06
-3.58473e-07
-4.61399e-06
-3.6369e-07
-4.42887e-06
-3.67035e-07
-4.24295e-06
-3.68559e-07
-4.05711e-06
-3.6837e-07
-3.8721e-06
-3.66544e-07
-3.68868e-06
-3.63348e-07
-3.50756e-06
-3.58975e-07
-3.32932e-06
-3.53638e-07
-3.15425e-06
-3.47514e-07
-2.98259e-06
-3.40854e-07
-2.81447e-06
-3.33727e-07
-2.64999e-06
-3.2653e-07
-2.48911e-06
-3.19531e-07
-2.33141e-06
-3.13033e-07
-2.17608e-06
-3.07338e-07
-2.02233e-06
-3.02762e-07
-1.86902e-06
-3.00021e-07
-1.71499e-06
-2.99643e-07
-1.55935e-06
-3.01353e-07
-1.40189e-06
-3.04982e-07
-1.24198e-06
-3.09622e-07
-1.07959e-06
-3.14795e-07
-9.14893e-07
-3.19802e-07
-7.48185e-07
-3.24408e-07
-5.79596e-07
-3.28111e-07
-4.09268e-07
-3.31002e-07
-2.36811e-07
-3.33302e-07
-6.11442e-08
-3.35876e-07
1.18406e-07
-3.38431e-07
3.0016e-07
-3.40716e-07
4.80727e-07
-3.43546e-07
6.5802e-07
-3.45051e-07
8.333e-07
-3.43537e-07
1.00681e-06
-3.39648e-07
1.17815e-06
-3.34473e-07
1.34647e-06
-3.28243e-07
1.51176e-06
-3.21307e-07
1.67366e-06
-3.13794e-07
1.83198e-06
-3.05662e-07
1.98652e-06
-2.97354e-07
2.13712e-06
-2.88682e-07
2.28363e-06
-2.79883e-07
2.4258e-06
-2.71058e-07
2.56329e-06
-2.61847e-07
2.6961e-06
-2.52218e-07
2.82407e-06
-2.4282e-07
2.94694e-06
-2.33082e-07
3.06448e-06
-2.23075e-07
3.17687e-06
-2.12254e-07
3.2836e-06
-2.0081e-07
3.38401e-06
-1.87899e-07
3.47704e-06
-1.72852e-07
3.56144e-06
-1.53758e-07
3.63354e-06
-1.2733e-07
3.68971e-06
-8.7696e-08
3.73677e-06
-1.49621e-08
1.15899e-07
3.75713e-06
-4.28929e-08
1.45495e-07
-1.07109e-07
1.9101e-07
-1.59818e-07
1.8606e-07
-2.04772e-07
1.79595e-07
-2.44745e-07
1.7423e-07
-2.81857e-07
1.70972e-07
-3.1879e-07
1.69843e-07
-3.57173e-07
1.70878e-07
-3.98753e-07
1.74109e-07
-4.44087e-07
1.79415e-07
-4.94226e-07
1.86436e-07
-5.48795e-07
1.9467e-07
-6.08099e-07
2.03568e-07
-6.70757e-07
2.1261e-07
-7.36553e-07
2.21266e-07
-8.03793e-07
2.2904e-07
-8.72354e-07
2.35499e-07
-9.4073e-07
2.40248e-07
-1.00923e-06
2.42971e-07
-1.07669e-06
2.43472e-07
-1.14377e-06
2.41731e-07
-1.20951e-06
2.37839e-07
-1.27469e-06
2.31875e-07
-1.33844e-06
2.24043e-07
-1.40154e-06
2.14651e-07
-1.46302e-06
2.04003e-07
-1.52339e-06
1.92276e-07
-1.58144e-06
1.79564e-07
-1.6374e-06
1.65885e-07
-1.68981e-06
1.5119e-07
-1.73836e-06
1.35223e-07
-1.78149e-06
1.17683e-07
-1.81875e-06
9.83389e-08
-1.8484e-06
7.69248e-08
-1.86976e-06
5.31043e-08
-1.8813e-06
2.66659e-08
-1.88238e-06
-2.61433e-09
-1.87165e-06
-3.47762e-08
-1.84846e-06
-6.98045e-08
-1.81171e-06
-1.07655e-07
-1.76084e-06
-1.4819e-07
-1.69492e-06
-1.91149e-07
-1.61383e-06
-2.36215e-07
-1.51742e-06
-2.8307e-07
-1.40598e-06
-3.31238e-07
-1.27912e-06
-3.79851e-07
-1.13714e-06
-4.28045e-07
-9.81224e-07
-4.75187e-07
-8.13512e-07
-5.20303e-07
-6.34523e-07
-5.6174e-07
-4.4593e-07
-5.98103e-07
-2.5157e-07
-6.27801e-07
-5.66475e-08
-6.49814e-07
1.37094e-07
-6.62785e-07
3.30261e-07
-6.64838e-07
5.22003e-07
-6.55102e-07
7.09611e-07
-6.33481e-07
8.89419e-07
-6.00831e-07
1.05742e-06
-5.5914e-07
1.21094e-06
-5.10348e-07
1.35029e-06
-4.56768e-07
1.47854e-06
-3.9823e-07
1.60008e-06
-3.33041e-07
1.71663e-06
-2.57107e-07
1.8245e-06
-1.6802e-07
1.91364e-06
-6.58653e-08
1.97192e-06
4.14395e-08
1.98833e-06
1.44234e-07
1.95846e-06
2.35833e-07
1.89001e-06
3.09157e-07
1.79983e-06
3.53341e-07
1.70319e-06
3.61741e-07
1.60317e-06
3.44676e-07
1.50549e-06
3.1544e-07
1.43834e-06
2.52672e-07
1.4388e-06
1.18292e-07
1.50104e-06
-5.47304e-08
1.58117e-06
-1.81384e-07
1.49528e-06
-6.15706e-08
9.89379e-07
3.92846e-07
4.75301e-08
1.06618e-06
-1.1049e-06
1.57971e-06
-2.12292e-06
1.85177e-06
-2.93498e-06
1.94062e-06
-3.55332e-06
1.91748e-06
-3.99761e-06
1.82793e-06
-4.32035e-06
1.69108e-06
-4.56918e-06
1.53092e-06
-4.77804e-06
1.36563e-06
-4.96671e-06
1.2063e-06
-5.14449e-06
1.06073e-06
-5.31445e-06
9.29625e-07
-5.47617e-06
8.13599e-07
-5.62855e-06
7.10877e-07
-5.77037e-06
6.19754e-07
-5.9002e-06
5.38073e-07
-6.01713e-06
4.63857e-07
-6.12013e-06
3.95839e-07
-6.20905e-06
3.32791e-07
-6.28331e-06
2.73705e-07
-6.34302e-06
2.17711e-07
-6.38772e-06
1.6436e-07
-6.41745e-06
1.12816e-07
-6.43173e-06
6.295e-08
-6.43101e-06
1.483e-08
-6.41521e-06
-3.17046e-08
-6.3848e-06
-7.69554e-08
-6.33989e-06
-1.20761e-07
-6.281e-06
-1.63188e-07
-6.2085e-06
-2.03546e-07
-6.12342e-06
-2.42145e-07
-6.02647e-06
-2.79162e-07
-5.91824e-06
-3.14534e-07
-5.79928e-06
-3.47624e-07
-5.67062e-06
-3.78436e-07
-5.53306e-06
-4.06879e-07
-5.38745e-06
-4.32898e-07
-5.23454e-06
-4.56306e-07
-5.07519e-06
-4.77124e-07
-4.91036e-06
-4.95123e-07
-4.74079e-06
-5.10456e-07
-4.56729e-06
-5.23343e-07
-4.3906e-06
-5.33757e-07
-4.21142e-06
-5.4155e-07
-4.0305e-06
-5.46632e-07
-3.84873e-06
-5.4913e-07
-3.66688e-06
-5.49042e-07
-3.48577e-06
-5.46599e-07
-3.30617e-06
-5.41962e-07
-3.12883e-06
-5.35473e-07
-2.95429e-06
-5.27375e-07
-2.78307e-06
-5.17951e-07
-2.61545e-06
-5.07507e-07
-2.45168e-06
-4.96445e-07
-2.29181e-06
-4.85252e-07
-2.13572e-06
-4.74616e-07
-1.98266e-06
-4.6514e-07
-1.83166e-06
-4.57387e-07
-1.68124e-06
-4.51975e-07
-1.53024e-06
-4.49657e-07
-1.37744e-06
-4.50926e-07
-1.22209e-06
-4.55369e-07
-1.0638e-06
-4.62075e-07
-9.02236e-07
-4.70342e-07
-7.37375e-07
-4.79075e-07
-5.69564e-07
-4.87497e-07
-3.99013e-07
-4.95196e-07
-2.2571e-07
-5.01918e-07
-4.92079e-08
-5.07987e-07
1.30337e-07
-5.13142e-07
3.11514e-07
-5.17148e-07
4.93379e-07
-5.20278e-07
6.75326e-07
-5.22554e-07
8.55928e-07
-5.24004e-07
1.03443e-06
-5.23335e-07
1.21093e-06
-5.19781e-07
1.38545e-06
-5.13822e-07
1.55746e-06
-5.06113e-07
1.72668e-06
-4.97039e-07
1.89282e-06
-4.8699e-07
2.05562e-06
-4.76124e-07
2.21488e-06
-4.64434e-07
2.37023e-06
-4.52244e-07
2.52152e-06
-4.3953e-07
2.66852e-06
-4.26499e-07
2.81105e-06
-4.13213e-07
2.94912e-06
-3.99631e-07
3.08262e-06
-3.85442e-07
3.21115e-06
-3.71141e-07
3.33462e-06
-3.56334e-07
3.45313e-06
-3.4141e-07
3.56684e-06
-3.25797e-07
3.67541e-06
-3.09228e-07
3.77827e-06
-2.90625e-07
3.87444e-06
-2.68896e-07
3.96255e-06
-2.41768e-07
4.04036e-06
-2.05062e-07
4.10455e-06
-1.51786e-07
4.15814e-06
-6.84948e-08
6.59222e-08
4.2081e-06
-3.29819e-08
1.80686e-07
-6.6808e-08
2.27027e-07
-9.66171e-08
2.17188e-07
-1.23265e-07
2.07211e-07
-1.48206e-07
1.99883e-07
-1.72375e-07
1.95798e-07
-1.97062e-07
1.95031e-07
-2.23229e-07
1.97581e-07
-2.52056e-07
2.0332e-07
-2.84092e-07
2.11947e-07
-3.20293e-07
2.22957e-07
-3.60835e-07
2.3569e-07
-4.0635e-07
2.4937e-07
-4.56408e-07
2.63172e-07
-5.1118e-07
2.76295e-07
-5.69651e-07
2.88031e-07
-6.3171e-07
2.97806e-07
-6.96159e-07
3.05212e-07
-7.62993e-07
3.10019e-07
-8.31177e-07
3.12147e-07
-9.0094e-07
3.11672e-07
-9.71371e-07
3.08732e-07
-1.04284e-06
3.03493e-07
-1.11456e-06
2.96182e-07
-1.18681e-06
2.87013e-07
-1.25859e-06
2.76162e-07
-1.32994e-06
2.63698e-07
-1.39967e-06
2.49611e-07
-1.46756e-06
2.33794e-07
-1.53218e-06
2.16049e-07
-1.59306e-06
1.96075e-07
-1.64877e-06
1.73552e-07
-1.69867e-06
1.48156e-07
-1.74126e-06
1.19565e-07
-1.77578e-06
8.74659e-08
-1.80079e-06
5.16117e-08
-1.81554e-06
1.19083e-08
-1.81878e-06
-3.16692e-08
-1.80978e-06
-7.90701e-08
-1.78748e-06
-1.30154e-07
-1.75127e-06
-1.84679e-07
-1.70036e-06
-2.42271e-07
-1.63445e-06
-3.02445e-07
-1.55313e-06
-3.64635e-07
-1.45663e-06
-4.28082e-07
-1.34499e-06
-4.91802e-07
-1.21853e-06
-5.54895e-07
-1.07765e-06
-6.16448e-07
-9.23677e-07
-6.74731e-07
-7.58193e-07
-7.27666e-07
-5.82472e-07
-7.74316e-07
-3.97298e-07
-8.13426e-07
-2.05786e-07
-8.41788e-07
-1.09623e-08
-8.58011e-07
1.8562e-07
-8.61821e-07
3.82506e-07
-8.52335e-07
5.77421e-07
-8.28767e-07
7.6736e-07
-7.91086e-07
9.4869e-07
-7.408e-07
1.11773e-06
-6.79692e-07
1.27074e-06
-6.10092e-07
1.40609e-06
-5.33886e-07
1.52525e-06
-4.52577e-07
1.63265e-06
-3.64926e-07
1.73285e-06
-2.68768e-07
1.82678e-06
-1.60418e-07
1.90859e-06
-4.11167e-08
1.96944e-06
8.25555e-08
2.00229e-06
2.02077e-07
2.00597e-06
3.04468e-07
1.98499e-06
3.73199e-07
1.94102e-06
4.04461e-07
1.86883e-06
4.15483e-07
1.78274e-06
3.99985e-07
1.73413e-06
2.99754e-07
1.75592e-06
9.50158e-08
1.7964e-06
-9.69386e-08
1.56864e-06
4.45439e-08
7.90234e-07
7.15377e-07
-3.7796e-07
1.56011e-06
-1.43451e-06
2.1221e-06
-2.2383e-06
2.38303e-06
-2.82356e-06
2.43663e-06
-3.25076e-06
2.36744e-06
-3.5666e-06
2.23289e-06
-3.8073e-06
2.06816e-06
-4.00688e-06
1.89017e-06
-4.18859e-06
1.71223e-06
-4.36488e-06
1.54156e-06
-4.54064e-06
1.38168e-06
-4.71517e-06
1.23462e-06
-4.88641e-06
1.09989e-06
-5.05119e-06
9.77167e-07
-5.20712e-06
8.65278e-07
-5.352e-06
7.62974e-07
-5.4844e-06
6.68641e-07
-5.60298e-06
5.80729e-07
-5.70706e-06
4.98294e-07
-5.79604e-06
4.20405e-07
-5.86973e-06
3.46187e-07
-5.92783e-06
2.7488e-07
-5.97047e-06
2.06232e-07
-5.99759e-06
1.39415e-07
-6.00935e-06
7.43419e-08
-6.00602e-06
1.13319e-08
-5.9878e-06
-4.99249e-08
-5.95508e-06
-1.09505e-07
-5.90833e-06
-1.67196e-07
-5.84789e-06
-2.23177e-07
-5.7743e-06
-2.76546e-07