/*--------------------------------*- C++ -*----------------------------------*\
| =========                 |                                                 |
| \\      /  F ield         | OpenFOAM: The Open Source CFD Toolbox           |
|  \\    /   O peration     | Version:  4.x                                   |
|   \\  /    A nd           | Web:      www.OpenFOAM.org                      |
|    \\/     M anipulation  |                                                 |
\*---------------------------------------------------------------------------*/
FoamFile
{
    version     2.0;
    format      ascii;
    class       volVectorField;
    location    "100";
    object      U;
}
// * * * * * * * * * * * * * * * * * * * * * * * * * * * * * * * * * * * * * //

dimensions      [0 1 -1 0 0 0 0];

internalField   nonuniform List<vector> 
12225
(
(9.75737 0.0428749 0)
(9.32563 0.0779306 0)
(8.90571 0.0847457 0)
(8.51163 0.0815577 0)
(8.15985 0.0748532 0)
(7.85261 0.0664564 0)
(7.58569 0.0575354 0)
(7.3553 0.0487999 0)
(7.15808 0.0409391 0)
(6.98831 0.0343344 0)
(6.8414 0.0287345 0)
(6.71568 0.0238525 0)
(6.60834 0.019397 0)
(6.51909 0.0151754 0)
(6.4468 0.0108913 0)
(6.39279 0.00575785 0)
(6.3628 6.13609e-05 0)
(6.34814 -0.0138701 0)
(10.0959 0.0584341 0)
(10.2399 0.0932812 0)
(10.3156 0.0929695 0)
(10.3357 0.0891227 0)
(10.3239 0.0860573 0)
(10.2903 0.0823276 0)
(10.2402 0.0778296 0)
(10.1784 0.0730589 0)
(10.1095 0.0682513 0)
(10.0382 0.0635693 0)
(9.96754 0.0591073 0)
(9.89838 0.0546382 0)
(9.83233 0.0500041 0)
(9.76964 0.0449558 0)
(9.71176 0.0391474 0)
(9.65906 0.0316455 0)
(9.61234 0.0214103 0)
(9.5729 0.0017174 0)
(10.0128 0.0415753 0)
(10.073 0.0643651 0)
(10.1232 0.0669237 0)
(10.1602 0.0710695 0)
(10.1903 0.0750833 0)
(10.216 0.0766817 0)
(10.2354 0.0761633 0)
(10.2488 0.0744532 0)
(10.2566 0.0720743 0)
(10.2603 0.0692951 0)
(10.2607 0.0660933 0)
(10.2588 0.0624515 0)
(10.2551 0.0582883 0)
(10.2502 0.0534223 0)
(10.2448 0.047436 0)
(10.2392 0.0394265 0)
(10.233 0.0280934 0)
(10.2225 0.00853843 0)
(10.0067 0.0294788 0)
(10.0396 0.0545723 0)
(10.0712 0.061417 0)
(10.0942 0.0664537 0)
(10.1143 0.06992 0)
(10.1335 0.0709766 0)
(10.151 0.0702889 0)
(10.1663 0.068719 0)
(10.1797 0.0666398 0)
(10.1915 0.0641616 0)
(10.2021 0.0612937 0)
(10.2117 0.0580075 0)
(10.2205 0.0541734 0)
(10.2288 0.0495643 0)
(10.2365 0.0437611 0)
(10.2436 0.0360155 0)
(10.2493 0.0255636 0)
(10.2513 0.0104028 0)
(10.0047 0.0232576 0)
(10.0278 0.048456 0)
(10.0525 0.0564394 0)
(10.0706 0.0610771 0)
(10.0864 0.0642607 0)
(10.1018 0.0654842 0)
(10.1164 0.0651385 0)
(10.1295 0.0638743 0)
(10.1416 0.0620325 0)
(10.1528 0.0597275 0)
(10.1635 0.0569894 0)
(10.1736 0.0537674 0)
(10.1834 0.0499371 0)
(10.1928 0.0452842 0)
(10.2018 0.0394827 0)
(10.21 0.032037 0)
(10.2168 0.0226486 0)
(10.2206 0.010532 0)
(10.0031 0.0185962 0)
(10.0205 0.0419059 0)
(10.0411 0.0506657 0)
(10.0571 0.0554597 0)
(10.0711 0.058804 0)
(10.0846 0.0603129 0)
(10.0976 0.0602218 0)
(10.1095 0.0591228 0)
(10.1206 0.057381 0)
(10.1311 0.0551226 0)
(10.1411 0.0523794 0)
(10.1508 0.0491072 0)
(10.1601 0.0452106 0)
(10.1691 0.0405178 0)
(10.1776 0.0348053 0)
(10.1852 0.0277935 0)
(10.1915 0.0194415 0)
(10.1952 0.00950858 0)
(10.0021 0.0148793 0)
(10.0153 0.0355668 0)
(10.0325 0.0449024 0)
(10.047 0.0499594 0)
(10.0598 0.05336 0)
(10.0723 0.0550042 0)
(10.0842 0.0550776 0)
(10.0954 0.0541059 0)
(10.1058 0.0524441 0)
(10.1157 0.0502175 0)
(10.1252 0.0474639 0)
(10.1344 0.0441578 0)
(10.1432 0.0402353 0)
(10.1516 0.0355762 0)
(10.1594 0.0300527 0)
(10.1664 0.0235508 0)
(10.172 0.0161739 0)
(10.1756 0.00795999 0)
(10.0015 0.0122598 0)
(10.0121 0.0306747 0)
(10.0267 0.0401411 0)
(10.0401 0.0453008 0)
(10.052 0.0486519 0)
(10.0636 0.0503323 0)
(10.0749 0.0505032 0)
(10.0855 0.0496228 0)
(10.0955 0.0480213 0)
(10.105 0.0458239 0)
(10.1141 0.0430792 0)
(10.1229 0.0397787 0)
(10.1313 0.0358875 0)
(10.1392 0.0313315 0)
(10.1465 0.0260555 0)
(10.1529 0.0200462 0)
(10.1583 0.0134688 0)
(10.1618 0.00646379 0)
(10.0012 0.0103043 0)
(10.0097 0.0267593 0)
(10.0224 0.0360367 0)
(10.0346 0.0412003 0)
(10.0459 0.04448 0)
(10.0568 0.0461508 0)
(10.0675 0.0463725 0)
(10.0776 0.0455486 0)
(10.0872 0.0439818 0)
(10.0964 0.0418003 0)
(10.1051 0.0390579 0)
(10.1135 0.0357647 0)
(10.1215 0.0319083 0)
(10.129 0.0274552 0)
(10.1359 0.0223976 0)
(10.1419 0.0167859 0)
(10.1469 0.0108035 0)
(10.1505 0.00462806 0)
(10.0009 0.00857901 0)
(10.0077 0.0229472 0)
(10.0184 0.0317445 0)
(10.0296 0.0367972 0)
(10.04 0.0399444 0)
(10.0502 0.0415616 0)
(10.0603 0.0418071 0)
(10.0699 0.0410206 0)
(10.079 0.039479 0)
(10.0877 0.0373147 0)
(10.0961 0.0345885 0)
(10.104 0.0313277 0)
(10.1116 0.0275433 0)
(10.1186 0.0232401 0)
(10.125 0.0184502 0)
(10.1307 0.0132613 0)
(10.1355 0.00785543 0)
(10.1391 0.00241887 0)
(10.0007 0.00703508 0)
(10.0061 0.0192733 0)
(10.015 0.0273334 0)
(10.0249 0.0321338 0)
(10.0346 0.0350678 0)
(10.044 0.0365674 0)
(10.0533 0.036796 0)
(10.0623 0.0360243 0)
(10.071 0.0344978 0)
(10.0792 0.0323511 0)
(10.0871 0.0296546 0)
(10.0946 0.0264495 0)
(10.1016 0.022771 0)
(10.1082 0.0186534 0)
(10.1142 0.0141568 0)
(10.1194 0.00938869 0)
(10.124 0.00450547 0)
(10.1276 -0.000306606 0)
(10.0005 0.00564704 0)
(10.0048 0.015782 0)
(10.0121 0.0228706 0)
(10.0208 0.0272531 0)
(10.0295 0.0298854 0)
(10.0382 0.0311954 0)
(10.0468 0.0313535 0)
(10.0552 0.0305684 0)
(10.0632 0.0290455 0)
(10.0709 0.0269199 0)
(10.0783 0.024268 0)
(10.0853 0.0211468 0)
(10.0918 0.0176042 0)
(10.0979 0.0136999 0)
(10.1034 0.00950454 0)
(10.1084 0.00513151 0)
(10.1128 0.000699709 0)
(10.1163 -0.00360861 0)
(10.0004 0.00439867 0)
(10.0037 0.0124997 0)
(10.0098 0.0184229 0)
(10.0172 0.022209 0)
(10.025 0.0244398 0)
(10.0329 0.0254827 0)
(10.0407 0.0255059 0)
(10.0484 0.0246686 0)
(10.0559 0.0231362 0)
(10.063 0.0210326 0)
(10.0698 0.0184418 0)
(10.0763 0.015425 0)
(10.0823 0.0120445 0)
(10.0879 0.00836291 0)
(10.093 0.00446175 0)
(10.0977 0.00043373 0)
(10.1019 -0.00362569 0)
(10.1054 -0.00755226 0)
(10.0003 0.00326764 0)
(10.0029 0.00942834 0)
(10.0078 0.0140485 0)
(10.0142 0.0170645 0)
(10.021 0.0187829 0)
(10.0281 0.0194751 0)
(10.0352 0.0192915 0)
(10.0422 0.0183548 0)
(10.049 0.0167915 0)
(10.0556 0.0147075 0)
(10.0618 0.0121846 0)
(10.0677 0.00928649 0)
(10.0733 0.00607694 0)
(10.0784 0.00261716 0)
(10.0832 -0.00101961 0)
(10.0875 -0.00475518 0)
(10.0915 -0.00853206 0)
(10.095 -0.0121743 0)
(10.0003 0.00223041 0)
(10.0023 0.00654696 0)
(10.0063 0.00978277 0)
(10.0117 0.0118788 0)
(10.0177 0.0129704 0)
(10.0239 0.0132255 0)
(10.0302 0.0127639 0)
(10.0365 0.0116753 0)
(10.0427 0.0100515 0)
(10.0487 0.0079763 0)
(10.0544 0.00551958 0)
(10.0597 0.00274322 0)
(10.0648 -0.000300002 0)
(10.0695 -0.00355146 0)
(10.0739 -0.00695836 0)
(10.0779 -0.0104558 0)
(10.0817 -0.0140192 0)
(10.085 -0.0174614 0)
(10.0002 0.00126208 0)
(10.0019 0.00381508 0)
(10.0052 0.005622 0)
(10.0097 0.00668287 0)
(10.0149 0.00703892 0)
(10.0204 0.00677607 0)
(10.026 0.00596791 0)
(10.0317 0.00467517 0)
(10.0372 0.00295752 0)
(10.0426 0.000874079 0)
(10.0477 -0.00152294 0)
(10.0526 -0.00418498 0)
(10.0571 -0.0070689 0)
(10.0614 -0.0101323 0)
(10.0654 -0.0133359 0)
(10.0691 -0.0166381 0)
(10.0726 -0.020029 0)
(10.0757 -0.0233277 0)
(10.0002 0.00033386 0)
(10.0016 0.00116422 0)
(10.0044 0.00151702 0)
(10.0083 0.00146194 0)
(10.0129 0.000997013 0)
(10.0177 0.000147199 0)
(10.0228 -0.00106283 0)
(10.0278 -0.00260025 0)
(10.0327 -0.00444029 0)
(10.0375 -0.00654473 0)
(10.0421 -0.00888925 0)
(10.0465 -0.0114369 0)
(10.0505 -0.0141669 0)
(10.0544 -0.0170455 0)
(10.0579 -0.0200562 0)
(10.0612 -0.0231678 0)
(10.0643 -0.0263894 0)
(10.0671 -0.0295465 0)
(10.0002 -0.000546325 0)
(10.0015 -0.00136963 0)
(10.004 -0.00241911 0)
(10.0076 -0.00357104 0)
(10.0118 -0.00484769 0)
(10.0162 -0.00628099 0)
(10.0208 -0.0078816 0)
(10.0254 -0.00965898 0)
(10.0299 -0.0116048 0)
(10.0342 -0.0137216 0)
(10.0384 -0.0159922 0)
(10.0423 -0.0184162 0)
(10.0459 -0.0209704 0)
(10.0493 -0.0236548 0)
(10.0524 -0.026446 0)
(10.0553 -0.029346 0)
(10.058 -0.0323495 0)
(10.0604 -0.0353233 0)
(10.0002 -0.00135162 0)
(10.0015 -0.00369936 0)
(10.0041 -0.00600991 0)
(10.0077 -0.00812429 0)
(10.0117 -0.0100969 0)
(10.016 -0.0120146 0)
(10.0204 -0.0139303 0)
(10.0247 -0.0158779 0)
(10.029 -0.0178828 0)
(10.033 -0.0199629 0)
(10.0368 -0.0221327 0)
(10.0404 -0.0243965 0)
(10.0437 -0.0267585 0)
(10.0468 -0.0292155 0)
(10.0495 -0.0317683 0)
(10.0521 -0.0344122 0)
(10.0543 -0.0371593 0)
(10.0565 -0.039883 0)
(10.0002 -0.00211996 0)
(10.0017 -0.00591085 0)
(10.0045 -0.00934847 0)
(10.0084 -0.0122602 0)
(10.0126 -0.0147801 0)
(10.0169 -0.0170593 0)
(10.0213 -0.0191918 0)
(10.0256 -0.0212297 0)
(10.0297 -0.0232282 0)
(10.0336 -0.0252255 0)
(10.0372 -0.0272571 0)
(10.0406 -0.0293349 0)
(10.0437 -0.0314801 0)
(10.0464 -0.033691 0)
(10.049 -0.0359835 0)
(10.0512 -0.0383498 0)
(10.0532 -0.0408111 0)
(10.055 -0.0432559 0)
(10.0002 -0.00292497 0)
(10.002 -0.00818413 0)
(10.0054 -0.0126526 0)
(10.0097 -0.0162094 0)
(10.0143 -0.0191329 0)
(10.0188 -0.0216678 0)
(10.0233 -0.0239238 0)
(10.0276 -0.0259813 0)
(10.0318 -0.0279128 0)
(10.0356 -0.0297887 0)
(10.0392 -0.0316434 0)
(10.0424 -0.0335187 0)
(10.0453 -0.0354189 0)
(10.0479 -0.0373786 0)
(10.0503 -0.0393869 0)
(10.0523 -0.0414755 0)
(10.054 -0.043629 0)
(10.0557 -0.0457921 0)
(10.0003 -0.00384087 0)
(10.0027 -0.0106722 0)
(10.0069 -0.0160695 0)
(10.0118 -0.0200997 0)
(10.0168 -0.0232963 0)
(10.0217 -0.0259865 0)
(10.0264 -0.0282866 0)
(10.0309 -0.030292 0)
(10.0351 -0.0321111 0)
(10.039 -0.0338262 0)
(10.0425 -0.035489 0)
(10.0457 -0.037134 0)
(10.0486 -0.0387906 0)
(10.0511 -0.0404772 0)
(10.0533 -0.0422153 0)
(10.0552 -0.0440067 0)
(10.0568 -0.0458733 0)
(10.0582 -0.0477339 0)
(10.0004 -0.00496167 0)
(10.0037 -0.013515 0)
(10.009 -0.0196804 0)
(10.0148 -0.0239884 0)
(10.0204 -0.0273434 0)
(10.0256 -0.0301076 0)
(10.0306 -0.0323733 0)
(10.0354 -0.0342678 0)
(10.0397 -0.0359372 0)
(10.0437 -0.037471 0)
(10.0473 -0.0389256 0)
(10.0506 -0.0403357 0)
(10.0534 -0.0417426 0)
(10.0559 -0.043165 0)
(10.0581 -0.0446327 0)
(10.06 -0.0461456 0)
(10.0615 -0.047724 0)
(10.0629 -0.0493077 0)
(10.0006 -0.00641574 0)
(10.0052 -0.0168351 0)
(10.0121 -0.0235182 0)
(10.0189 -0.0278819 0)
(10.025 -0.0313039 0)
(10.0307 -0.0340831 0)
(10.0362 -0.0362579 0)
(10.0413 -0.0380036 0)
(10.0459 -0.0395013 0)
(10.0501 -0.0408432 0)
(10.0539 -0.0420794 0)
(10.0573 -0.0432548 0)
(10.0603 -0.0444082 0)
(10.0629 -0.0455786 0)
(10.0651 -0.0467805 0)
(10.067 -0.0480363 0)
(10.0685 -0.0493443 0)
(10.0699 -0.0506732 0)
(10.001 -0.00835832 0)
(10.0077 -0.0206958 0)
(10.0165 -0.0276394 0)
(10.0245 -0.0318574 0)
(10.0312 -0.0352467 0)
(10.0376 -0.037965 0)
(10.0437 -0.0400072 0)
(10.0494 -0.0415953 0)
(10.0544 -0.0429229 0)
(10.059 -0.0440736 0)
(10.0632 -0.0450919 0)
(10.0668 -0.0460274 0)
(10.0701 -0.0469291 0)
(10.0728 -0.0478378 0)
(10.0752 -0.0487816 0)
(10.0772 -0.0497756 0)
(10.0788 -0.0508339 0)
(10.0803 -0.0519053 0)
(10.0016 -0.0109973 0)
(10.0116 -0.0250504 0)
(10.0228 -0.0321203 0)
(10.0324 -0.0361861 0)
(10.0403 -0.0394627 0)
(10.0477 -0.0419641 0)
(10.0548 -0.0437503 0)
(10.0614 -0.0451158 0)
(10.0672 -0.0462512 0)
(10.0724 -0.0472003 0)
(10.0772 -0.048006 0)
(10.0813 -0.0487199 0)
(10.085 -0.0493906 0)
(10.0881 -0.0500709 0)
(10.0907 -0.0507844 0)
(10.093 -0.0515593 0)
(10.0948 -0.0524074 0)
(10.0964 -0.0532815 0)
(10.0027 -0.0153832 0)
(10.0181 -0.0301638 0)
(10.0336 -0.0365747 0)
(10.046 -0.0406391 0)
(10.0562 -0.0440832 0)
(10.0659 -0.0464482 0)
(10.0749 -0.0479302 0)
(10.0831 -0.0489783 0)
(10.0903 -0.0497907 0)
(10.0967 -0.0504039 0)
(10.1025 -0.0508589 0)
(10.1075 -0.0512178 0)
(10.1117 -0.0515438 0)
(10.1153 -0.0518861 0)
(10.1183 -0.0522823 0)
(10.1207 -0.0527607 0)
(10.1227 -0.0533384 0)
(10.1243 -0.0539391 0)
(10.0075 -0.0235882 0)
(10.0345 -0.0382104 0)
(10.0607 -0.0411955 0)
(10.0803 -0.0441022 0)
(10.0969 -0.0476648 0)
(10.1122 -0.0503488 0)
(10.1257 -0.0520947 0)
(10.1372 -0.0533516 0)
(10.1469 -0.0542878 0)
(10.1549 -0.0549176 0)
(10.1615 -0.0552811 0)
(10.1665 -0.0554597 0)
(10.1702 -0.0555467 0)
(10.1727 -0.0556043 0)
(10.1739 -0.055725 0)
(10.1742 -0.0559621 0)
(10.1737 -0.0563252 0)
(10.1726 -0.0568472 0)
(10.0291 -0.0337293 0)
(10.111 -0.0576912 0)
(10.1686 -0.0599981 0)
(10.2029 -0.0591455 0)
(10.2248 -0.0588789 0)
(10.238 -0.0583849 0)
(10.2435 -0.0575886 0)
(10.2421 -0.0567832 0)
(10.2352 -0.0560131 0)
(10.2239 -0.0551957 0)
(10.2089 -0.0542886 0)
(10.1909 -0.0533265 0)
(10.1705 -0.0523602 0)
(10.1482 -0.0514877 0)
(10.1245 -0.0507584 0)
(10.1002 -0.0502756 0)
(10.0757 -0.0500951 0)
(10.0518 -0.0505787 0)
(9.9074 -0.0260612 0)
(9.70457 -0.0520302 0)
(9.50122 -0.0596881 0)
(9.29883 -0.0618314 0)
(9.108 -0.0617844 0)
(8.9318 -0.0602971 0)
(8.76904 -0.0578968 0)
(8.61806 -0.0550931 0)
(8.47824 -0.052122 0)
(8.34932 -0.0490456 0)
(8.23074 -0.0459358 0)
(8.12181 -0.0428689 0)
(8.02179 -0.0398905 0)
(7.92994 -0.0370691 0)
(7.8453 -0.0345721 0)
(7.76638 -0.0325592 0)
(7.69184 -0.0310158 0)
(7.62193 -0.0302479 0)
(0.0784992 0.0347277 0)
(-0.0501856 0.0295317 0)
(-0.0618521 0.0448272 0)
(-0.131155 0.0546634 0)
(-0.186948 0.0647624 0)
(-0.242252 0.0705148 0)
(-0.299705 0.0714372 -1.36605e-19)
(-0.358209 0.0692582 1.21237e-19)
(-0.416311 0.0662006 0)
(-0.473239 0.0633256 1.0097e-19)
(-0.530118 0.0613111 0)
(-0.587614 0.0602172 0)
(-0.647065 0.0615179 0)
(-0.708839 0.0648542 -7.79569e-20)
(-0.774493 0.0692996 0)
(-0.844139 0.07438 0)
(-0.918585 0.0795925 6.67161e-20)
(-0.997518 0.084755 0)
(-1.081 0.0894732 0)
(-1.16778 0.093477 0)
(-1.25734 0.0965116 -5.63385e-20)
(-1.34803 0.0984857 0)
(-1.43887 0.0993051 -5.31812e-20)
(-1.52814 0.0989357 0)
(-1.6149 0.0972671 0)
(-1.69736 0.0943581 -5.10077e-20)
(-1.77508 0.0904453 0)
(-1.84689 0.0856827 5.12049e-20)
(-1.91279 0.0802453 0)
(-1.97175 0.074191 -5.23857e-20)
(-2.02395 0.0676861 0)
(-2.069 0.0607377 0)
(-2.10661 0.0531074 0)
(-2.13642 0.0447836 0)
(-2.15852 0.035468 0)
(-2.17228 0.0257038 5.64997e-20)
(-2.17904 0.0152691 0)
(-2.17765 0.00357296 -1.10792e-19)
(-2.16716 -0.00982321 0)
(-2.14686 -0.0242073 1.04152e-19)
(-2.11621 -0.0387473 0)
(-2.07493 -0.0544411 0)
(-2.02144 -0.0735133 -8.42849e-20)
(-1.95507 -0.0955498 0)
(-1.87211 -0.116424 -6.38684e-20)
(-1.77409 -0.133333 5.17311e-20)
(-1.66549 -0.151946 0)
(-1.54551 -0.177968 2.36109e-20)
(-1.40121 -0.204908 7.78388e-21)
(-1.2353 -0.219205 0)
(-1.06825 -0.225352 0)
(-0.93055 -0.243812 0)
(-0.741917 -0.279787 0)
(-0.471002 -0.295038 0)
(-0.220594 -0.28944 7.92414e-20)
(0.0225294 -0.278481 0)
(0.259176 -0.26771 -8.21386e-20)
(0.484562 -0.256772 0)
(0.694215 -0.241678 0)
(0.886853 -0.220116 8.89015e-20)
(1.05288 -0.187789 0)
(1.18848 -0.145153 -9.87807e-20)
(1.27623 -0.0988965 0)
(1.31722 -0.0565483 0)
(1.3143 -0.02189 0)
(1.27325 0.0048481 1.18744e-19)
(1.20249 0.025987 0)
(1.10401 0.0412446 0)
(1.00882 0.0424699 1.57827e-19)
(0.907227 0.0343479 0)
(0.819403 0.0314499 1.99459e-19)
(0.703695 0.0457022 0)
(0.574541 0.0663497 0)
(0.481293 0.0680429 0)
(0.358206 0.0381423 -2.88758e-19)
(0.248296 0.00561687 0)
(0.213498 0.00234138 0)
(0.217799 -0.00846812 -2.2164e-19)
(0.254065 -0.0449545 -2.04137e-19)
(0.299114 -0.0197746 0)
(0.302131 0.0561389 -2.30472e-19)
(0.321418 0.0493064 0)
(0.302069 0.0329546 -6.41349e-19)
(0.494259 0.0298255 0)
(0.30409 0.0202501 -5.77696e-19)
(-0.170768 0.289033 0)
(-0.833666 0.423811 2.87445e-19)
(-1.52445 0.463829 0)
(-2.21181 0.44916 0)
(-2.86744 0.411622 0)
(-3.46083 0.363562 -8.44405e-20)
(-3.99297 0.314737 0)
(-4.45653 0.269104 2.57313e-20)
(-4.86087 0.229181 0)
(-5.20983 0.194885 2.00302e-20)
(-5.5121 0.165825 3.96284e-20)
(-5.77183 0.140562 5.75581e-20)
(-5.99421 0.118325 0)
(-6.18199 0.0986049 0)
(-6.3392 0.0809983 0)
(-6.46725 0.0649857 0)
(-6.56872 0.0502683 0)
(-6.64422 0.036893 0)
(-6.6962 0.0247191 0)
(-6.72587 0.0139208 0)
(-6.73718 0.00452503 -1.66598e-19)
(-6.73263 -0.00368623 -1.73217e-19)
(-6.71305 -0.0113213 0)
(-6.67904 -0.0185876 0)
(-6.63138 -0.0256571 0)
(-6.57081 -0.0323065 -1.88632e-19)
(-6.49748 -0.0388948 0)
(-6.41183 -0.0450976 0)
(-6.31452 -0.0511478 0)
(-6.20621 -0.0568943 0)
(-6.08741 -0.0622875 1.81404e-19)
(-5.95897 -0.0671032 0)
(-5.82172 -0.0713369 0)
(-5.67666 -0.0750378 -1.63731e-19)
(-5.52444 -0.0782093 1.55924e-19)
(-5.36624 -0.0806406 0)
(-5.20281 -0.0824086 1.3799e-19)
(-5.03506 -0.0834519 0)
(-4.86402 -0.0837431 -1.17231e-19)
(-4.69056 -0.0833942 0)
(-4.51574 -0.0823216 0)
(-4.34026 -0.0806631 0)
(-4.16522 -0.0784283 0)
(-3.99113 -0.0759732 0)
(-3.81871 -0.0733002 8.13142e-20)
(-3.64838 -0.0705535 5.23227e-20)
(-3.4806 -0.067853 0)
(-3.31538 -0.0654706 0)
(-3.15289 -0.0633382 0)
(-2.99334 -0.0615231 6.68247e-20)
(-2.8368 -0.0599981 0)
(-2.68351 -0.0585709 0)
(-2.53322 -0.0571227 0)
(-2.38532 -0.0556579 1.83291e-19)
(-2.23897 -0.0541284 -2.13275e-19)
(-2.09335 -0.0524258 0)
(-1.94773 -0.0514844 0)
(-1.80065 -0.0518621 -3.1804e-19)
(-1.65192 -0.0521115 -3.61696e-19)
(-1.50114 -0.0524928 0)
(-1.34802 -0.0530976 0)
(-1.19316 -0.0538309 5.3893e-19)
(-1.03665 -0.0549239 -6.21602e-19)
(-0.878664 -0.0565884 0)
(-0.719614 -0.0589592 0)
(-0.559778 -0.0625039 -1.01305e-18)
(-0.400097 -0.0680875 0)
(-0.242625 -0.0761721 0)
(-0.0812522 -0.0810812 -1.69451e-18)
(0.0884633 -0.0768366 0)
(0.262655 -0.0697774 -1.2209e-18)
(0.4356 -0.0639124 0)
(0.605717 -0.0589369 0)
(0.774918 -0.0550903 0)
(0.939743 -0.0511735 7.66381e-19)
(1.1015 -0.0474091 0)
(1.25899 -0.0435801 0)
(1.4127 -0.0404288 0)
(1.56248 -0.0388262 0)
(1.70694 -0.0373777 0)
(1.84733 -0.0355882 0)
(1.98293 -0.0336378 5.20457e-19)
(2.11498 -0.0319301 5.0201e-19)
(2.24144 -0.030421 0)
(2.36448 -0.0290375 0)
(2.48321 -0.0274695 0)
(2.59677 -0.0254373 -4.56497e-19)
(2.70512 -0.0236813 0)
(2.80723 -0.02185 8.92052e-19)
(2.9029 -0.0191651 -8.87008e-19)
(2.98865 -0.0153916 -8.86362e-19)
(3.06342 -0.0104802 8.90021e-19)
(3.11502 -0.00369118 -9.0402e-19)
(3.15612 0.0164462 9.28045e-19)
(3.02558 0.0439925 0)
(0.0716508 0.124259 0)
(-0.120162 0.140837 0)
(-0.152818 0.175026 3.33773e-19)
(-0.23173 0.18668 0)
(-0.286689 0.191641 -2.24551e-19)
(-0.338969 0.192262 -1.95858e-19)
(-0.391158 0.190044 -8.80396e-20)
(-0.44474 0.186668 -7.96299e-20)
(-0.500223 0.183616 0)
(-0.557667 0.181693 -6.89487e-20)
(-0.617674 0.181323 0)
(-0.680187 0.182664 0)
(-0.745209 0.185862 1.15718e-19)
(-0.812095 0.191028 5.49244e-20)
(-0.880712 0.197862 -1.04194e-19)
(-0.950405 0.205647 -9.90018e-20)
(-1.02083 0.213481 -4.70506e-20)
(-1.09124 0.220433 0)
(-1.16109 0.225603 0)
(-1.22947 0.228349 0)
(-1.29573 0.228245 -4.00865e-20)
(-1.35907 0.225201 0)
(-1.4192 0.219228 1.13605e-19)
(-1.47583 0.210422 0)
(-1.52887 0.199119 0)
(-1.57829 0.186224 3.59432e-20)
(-1.62441 0.172243 0)
(-1.66725 0.157675 -3.5808e-20)
(-1.70704 0.142672 -7.05748e-20)
(-1.74335 0.127647 3.60966e-20)
(-1.77673 0.112765 0)
(-1.8069 0.0975597 0)
(-1.83306 0.0819875 0)
(-1.85471 0.06624 -7.19461e-20)
(-1.87083 0.0495756 -7.1961e-20)
(-1.88103 0.0318575 -3.63037e-20)
(-1.88283 0.0126519 0)
(-1.87515 -0.00817211 6.92306e-20)
(-1.85679 -0.0309951 0)
(-1.82669 -0.0560328 -6.29115e-20)
(-1.7838 -0.0831485 0)
(-1.72714 -0.111868 0)
(-1.65617 -0.142531 4.74038e-20)
(-1.57107 -0.175784 0)
(-1.47142 -0.211401 1.06253e-19)
(-1.35607 -0.246812 -2.52917e-20)
(-1.22462 -0.281229 0)
(-1.0791 -0.31699 -8.19806e-21)
(-0.921162 -0.355513 6.97847e-22)
(-0.751366 -0.391568 0)
(-0.560475 -0.424794 0)
(-0.355459 -0.457922 0)
(-0.158284 -0.48418 0)
(0.0266161 -0.494734 0)
(0.205108 -0.488495 -3.45429e-20)
(0.384026 -0.470668 -6.97333e-20)
(0.560667 -0.445064 3.99524e-20)
(0.728816 -0.413676 0)
(0.886625 -0.377699 -8.90798e-20)
(1.03384 -0.336914 4.80658e-20)
(1.1727 -0.288585 0)
(1.30708 -0.229299 6.73104e-20)
(1.44133 -0.157772 0)
(1.56399 -0.0802978 0)
(1.65957 -0.00306473 1.54754e-19)
(1.71732 0.067459 -8.15061e-20)
(1.72986 0.125369 1.66689e-19)
(1.69766 0.163469 -1.78853e-19)
(1.6333 0.183574 -1.00693e-19)
(1.52439 0.198008 0)
(1.38472 0.212761 -1.26096e-19)
(1.22805 0.219567 0)
(1.10105 0.202309 0)
(1.00836 0.170498 0)
(0.889315 0.148446 -1.77304e-19)
(0.772906 0.124541 0)
(0.760113 0.0712742 -2.41068e-19)
(0.854835 0.00957074 3.11503e-19)
(0.967489 -0.0146426 1.0075e-19)
(0.97994 -0.069067 0)
(0.927726 -0.216655 1.46779e-19)
(0.821 -0.0791756 0)
(0.199713 0.453416 2.47805e-19)
(-0.679218 0.832983 0)
(-1.72047 0.991419 1.52513e-19)
(-2.66358 1.06445 -2.9602e-19)
(-3.38474 1.07408 -1.33816e-19)
(-3.95025 1.02404 0)
(-4.40154 0.936426 0)
(-4.75934 0.832535 0)
(-5.05099 0.727515 6.64736e-20)
(-5.29113 0.628445 0)
(-5.49447 0.540161 -2.72418e-20)
(-5.66838 0.462548 0)
(-5.81852 0.395587 -3.06525e-20)
(-5.94821 0.337485 -2.48705e-20)
(-6.06032 0.2868 -4.01742e-20)
(-6.15692 0.241899 0)
(-6.23925 0.20197 0)
(-6.30863 0.165803 0)
(-6.36571 0.132866 0)
(-6.41203 0.102379 0)
(-6.44792 0.0742155 -2.24353e-19)
(-6.47346 0.0481838 -2.41308e-19)
(-6.48879 0.0245216 0)
(-6.49147 0.00300072 1.33916e-19)
(-6.47997 -0.0168756 1.39222e-19)
(-6.45454 -0.0357127 0)
(-6.41508 -0.0531929 2.97656e-19)
(-6.36254 -0.0695039 0)
(-6.29695 -0.0851964 -1.55133e-19)
(-6.21895 -0.100371 0)
(-6.1292 -0.114383 0)
(-6.02811 -0.127337 3.07539e-19)
(-5.91633 -0.139274 0)
(-5.79479 -0.150291 -1.47143e-19)
(-5.6643 -0.16019 0)
(-5.52556 -0.168934 0)
(-5.37936 -0.176497 -1.36212e-19)
(-5.22651 -0.182917 -1.25733e-19)
(-5.06805 -0.188191 0)
(-4.90462 -0.192423 1.15217e-19)
(-4.73692 -0.195732 0)
(-4.56605 -0.197705 -9.83474e-20)
(-4.3925 -0.198581 -1.74149e-19)
(-4.21746 -0.198326 0)
(-4.04157 -0.197087 0)
(-3.86581 -0.194807 0)
(-3.69071 -0.191701 0)
(-3.5171 -0.18796 -6.69973e-20)
(-3.34569 -0.183748 -1.3913e-19)
(-3.17688 -0.179105 0)
(-3.01098 -0.174152 0)
(-2.84827 -0.169006 0)
(-2.68878 -0.163944 -4.72106e-20)
(-2.53255 -0.159059 0)
(-2.37949 -0.154537 0)
(-2.22853 -0.150635 2.2039e-19)
(-2.07909 -0.147501 1.2913e-19)
(-1.92997 -0.145464 1.52177e-19)
(-1.78036 -0.144703 0)
(-1.62902 -0.144985 0)
(-1.47521 -0.146322 2.17412e-19)
(-1.31907 -0.148159 -2.38311e-19)
(-1.15984 -0.150223 0)
(-0.997821 -0.15223 0)
(-0.833267 -0.154194 -3.32191e-19)
(-0.666217 -0.155764 1.10422e-18)
(-0.496824 -0.157173 0)
(-0.325227 -0.158437 0)
(-0.15101 -0.159598 5.03767e-19)
(0.027759 -0.159961 0)
(0.211291 -0.160513 9.47792e-19)
(0.396177 -0.161683 -4.45567e-19)
(0.578431 -0.160824 0)
(0.758845 -0.1581 4.07276e-19)
(0.937529 -0.15447 7.78893e-19)
(1.11534 -0.150372 0)
(1.29087 -0.14601 0)
(1.46393 -0.141781 -3.52194e-19)
(1.63425 -0.137268 0)
(1.80166 -0.132494 6.66593e-19)
(1.96601 -0.127532 0)
(2.12678 -0.122489 0)
(2.28431 -0.117781 0)
(2.43807 -0.113246 0)
(2.5874 -0.108481 -3.00437e-19)
(2.73263 -0.103801 -2.9499e-19)
(2.87364 -0.0994091 0)
(3.01012 -0.0948966 0)
(3.14157 -0.0905123 0)
(3.26802 -0.0858844 2.849e-19)
(3.38959 -0.0809386 0)
(3.50524 -0.0754487 -5.74679e-19)
(3.61471 -0.0692722 5.80224e-19)
(3.71537 -0.06144 5.89581e-19)
(3.80834 -0.0509667 6.0044e-19)
(3.88158 -0.0352045 6.19973e-19)
(3.95033 -0.0021767 6.41749e-19)
(3.98467 0.0532757 0)
(0.039321 0.231499 0)
(-0.0766878 0.299051 0)
(-0.120294 0.300193 -2.31618e-19)
(-0.166009 0.29282 -1.70527e-19)
(-0.201664 0.284956 1.34792e-19)
(-0.234007 0.279646 1.15002e-19)
(-0.265722 0.276703 -1.07971e-21)
(-0.298725 0.276106 0)
(-0.334041 0.278064 0)
(-0.372477 0.282603 0)
(-0.414843 0.289305 0)
(-0.461483 0.297556 0)
(-0.512424 0.306741 -2.40815e-19)
(-0.567086 0.316317 0)
(-0.624752 0.325657 7.61331e-20)
(-0.684448 0.334108 7.33655e-20)
(-0.745382 0.340977 0)
(-0.806791 0.345519 0)
(-0.868214 0.347062 0)
(-0.929223 0.345171 0)
(-0.989628 0.339746 5.82333e-20)
(-1.04931 0.330996 0)
(-1.10828 0.319036 -5.40419e-20)
(-1.1664 0.304262 0)
(-1.22376 0.287362 0)
(-1.28011 0.269016 0)
(-1.33547 0.249654 -9.82638e-20)
(-1.38934 0.229555 0)
(-1.44144 0.208878 4.93293e-20)
(-1.49099 0.187724 -9.72327e-20)
(-1.53738 0.165719 0)
(-1.57971 0.142475 0)
(-1.61699 0.117673 0)
(-1.64827 0.0909696 5.00261e-20)
(-1.67232 0.0619328 4.9891e-20)
(-1.68823 0.0302926 0)
(-1.69495 -0.00432997 0)
(-1.69167 -0.0418899 -9.38939e-20)
(-1.67741 -0.082353 -9.08246e-20)
(-1.65132 -0.125633 8.68607e-20)
(-1.61262 -0.171595 0)
(-1.56067 -0.219936 0)
(-1.49501 -0.270234 0)
(-1.41549 -0.322033 0)
(-1.32207 -0.374802 -4.7291e-20)
(-1.21482 -0.427503 -4.36246e-20)
(-1.0937 -0.47914 3.37605e-20)
(-0.959312 -0.52874 0)
(-0.813309 -0.574943 0)
(-0.6583 -0.615713 0)
(-0.491874 -0.651208 0)
(-0.316693 -0.679757 1.58624e-20)
(-0.139921 -0.70041 0)
(0.0368351 -0.710504 0)
(0.213197 -0.706559 3.74627e-20)
(0.38921 -0.688657 4.71253e-20)
(0.562932 -0.658071 0)
(0.731522 -0.617314 -1.07586e-19)
(0.891599 -0.569622 6.02911e-20)
(1.03908 -0.516673 -6.47564e-20)
(1.17257 -0.459752 0)
(1.29402 -0.396546 0)
(1.40793 -0.323482 0)
(1.51755 -0.235122 0)
(1.62287 -0.130405 -1.22291e-19)
(1.71762 -0.0163211 -2.53536e-19)
(1.78968 0.0922174 -1.33307e-19)
(1.82825 0.185003 1.38714e-19)
(1.82445 0.259561 0)
(1.77893 0.314132 -2.93305e-19)
(1.702 0.341733 -3.12304e-19)
(1.61454 0.336569 -3.36758e-19)
(1.52515 0.308126 3.64091e-19)
(1.42875 0.275315 0)
(1.33619 0.227114 5.89715e-19)
(1.29973 0.133529 0)
(1.36119 0.006144 -1.61614e-19)
(1.43235 -0.121075 -1.53099e-19)
(1.45295 -0.262762 0)
(1.2303 -0.228354 0)
(0.599674 0.554849 -4.36125e-19)
(-0.442758 1.24917 0)
(-1.52695 1.54991 -2.68052e-19)
(-2.40317 1.64665 0)
(-3.06365 1.6648 2.23218e-19)
(-3.55763 1.62398 4.19833e-19)
(-3.90801 1.52235 0)
(-4.16791 1.38305 0)
(-4.3786 1.22821 0)
(-4.56388 1.07356 1.13144e-19)
(-4.73721 0.931181 0)
(-4.90412 0.803738 5.6697e-20)
(-5.06384 0.693024 0)
(-5.21636 0.597319 0)
(-5.35944 0.514731 4.08712e-20)
(-5.49273 0.442557 0)
(-5.61441 0.378721 7.04327e-20)
(-5.7239 0.321709 0)
(-5.81998 0.270215 1.13235e-19)
(-5.90305 0.222988 0)
(-5.97213 0.179276 0)
(-6.02787 0.138385 0)
(-6.06919 0.0997144 5.5093e-19)
(-6.09628 0.062965 1.96836e-19)
(-6.10919 0.0281046 0)
(-6.10773 -0.00504405 0)
(-6.09231 -0.0368299 0)
(-6.06277 -0.0672293 0)
(-6.01971 -0.0961394 -2.39824e-19)
(-5.96349 -0.123088 4.95429e-19)
(-5.89432 -0.148338 2.48092e-19)
(-5.8137 -0.172416 -5.0387e-19)
(-5.72185 -0.195085 -5.02787e-19)
(-5.61925 -0.215841 -2.46284e-19)
(-5.50642 -0.234884 0)
(-5.38473 -0.25215 -4.80399e-19)
(-5.25458 -0.267588 0)
(-5.11682 -0.281078 4.49806e-19)
(-4.97211 -0.292735 2.11815e-19)
(-4.82145 -0.302476 0)
(-4.6655 -0.310338 -3.8734e-19)
(-4.50495 -0.316396 -1.77661e-19)
(-4.3407 -0.320775 0)
(-4.17338 -0.323427 -1.58592e-19)
(-4.00351 -0.324368 4.17532e-19)
(-3.83202 -0.323738 0)
(-3.65966 -0.321553 0)
(-3.48719 -0.317993 0)
(-3.31537 -0.313169 0)
(-3.14499 -0.307286 1.16823e-19)
(-2.97672 -0.300522 7.47768e-20)
(-2.81104 -0.293114 0)
(-2.6485 -0.285266 0)
(-2.48936 -0.277088 0)
(-2.33375 -0.268893 0)
(-2.18174 -0.26106 0)
(-2.03277 -0.253802 0)
(-1.88588 -0.247419 -1.73786e-19)
(-1.73994 -0.242387 -2.14413e-21)
(-1.59309 -0.239256 0)
(-1.44474 -0.238108 0)
(-1.2935 -0.238453 -2.97156e-19)
(-1.13913 -0.239958 0)
(-0.981176 -0.242301 3.68662e-19)
(-0.819305 -0.244869 4.03812e-19)
(-0.654084 -0.247142 0)
(-0.485505 -0.248985 0)
(-0.313732 -0.250228 -5.41651e-19)
(-0.138686 -0.251029 -1.16456e-18)
(0.040377 -0.251364 0)
(0.2227 -0.251478 0)
(0.406375 -0.251682 0)
(0.591287 -0.251733 -5.55462e-19)
(0.776315 -0.251485 5.40937e-19)
(0.959922 -0.250237 0)
(1.14223 -0.247451 1.02766e-18)
(1.32268 -0.243329 5.0142e-19)
(1.50212 -0.238637 -9.83128e-19)
(1.67883 -0.233181 0)
(1.85363 -0.227354 0)
(2.02553 -0.221207 -9.31664e-19)
(2.19463 -0.214801 -4.59376e-19)
(2.36067 -0.208289 0)
(2.52279 -0.201382 0)
(2.68168 -0.194486 0)
(2.83644 -0.187789 0)
(2.98719 -0.181001 -8.53904e-19)
(3.13373 -0.173755 0)
(3.27633 -0.166654 0)
(3.41394 -0.159432 0)
(3.54691 -0.15218 0)
(3.67537 -0.144653 0)
(3.79938 -0.136848 0)
(3.9181 -0.128235 -8.52294e-19)
(4.0313 -0.118377 0)
(4.13671 -0.106303 0)
(4.23457 -0.0900873 -1.82707e-18)
(4.31772 -0.0667134 9.51968e-19)
(4.39469 -0.0294121 -1.00366e-18)
(4.43796 0.0342549 1.05342e-18)
(0.00834011 0.313056 0)
(-0.044785 0.397864 5.60657e-19)
(-0.0768504 0.379746 0)
(-0.0994569 0.361568 1.08125e-19)
(-0.120993 0.34712 0)
(-0.1418 0.337613 0)
(-0.162991 0.333273 -6.29593e-20)
(-0.18546 0.334132 0)
(-0.209839 0.339966 0)
(-0.236768 0.350225 0)
(-0.266977 0.363991 0)
(-0.30104 0.380097 0)
(-0.339367 0.39724 2.02368e-19)
(-0.38205 0.414118 1.00801e-19)
(-0.42897 0.42952 -1.00136e-19)
(-0.479701 0.442435 0)
(-0.533724 0.452113 0)
(-0.590418 0.458042 0)
(-0.649261 0.459941 0)
(-0.709774 0.457758 0)
(-0.771646 0.451674 8.45707e-20)
(-0.834564 0.441971 8.18372e-20)
(-0.89833 0.428958 -7.94907e-20)
(-0.962746 0.413117 7.76219e-20)
(-1.02765 0.394898 0)
(-1.09266 0.374698 0)
(-1.15742 0.352724 7.5419e-20)
(-1.22137 0.329084 0)
(-1.2839 0.303756 0)
(-1.3442 0.276568 7.60684e-20)
(-1.40146 0.24717 7.63678e-20)
(-1.45482 0.215166 7.72728e-20)
(-1.50337 0.180204 0)
(-1.54606 0.141947 0)
(-1.58178 0.100008 -8.00092e-20)
(-1.60965 0.0541584 0)
(-1.62855 0.00424594 0)
(-1.63769 -0.0496767 7.62979e-20)
(-1.63612 -0.107455 -7.84779e-20)
(-1.62298 -0.168853 7.65011e-20)
(-1.59749 -0.233524 0)
(-1.55901 -0.300944 0)
(-1.50705 -0.370475 1.22237e-19)
(-1.44127 -0.441438 0)
(-1.36151 -0.512931 9.76987e-20)
(-1.26799 -0.583659 1.18575e-19)
(-1.16091 -0.652384 -9.51783e-20)
(-1.04034 -0.718157 5.17356e-20)
(-0.907218 -0.779307 0)
(-0.763045 -0.833264 0)
(-0.61005 -0.878118 1.11137e-21)
(-0.446747 -0.914103 -1.35195e-20)
(-0.274379 -0.938872 0)
(-0.0983986 -0.949756 0)
(0.0799149 -0.946032 -3.22336e-20)
(0.259611 -0.927059 -6.89712e-20)
(0.438757 -0.892378 0)
(0.614967 -0.842442 9.39487e-20)
(0.785409 -0.779793 -9.93335e-20)
(0.946529 -0.707535 1.07324e-19)
(1.09473 -0.629311 0)
(1.22695 -0.546797 0)
(1.34309 -0.460214 0)
(1.44634 -0.366108 0)
(1.54132 -0.261057 0)
(1.63185 -0.140118 2.10642e-19)
(1.71556 -0.008499 0)
(1.78482 0.121904 0)
(1.83109 0.240818 0)
(1.84968 0.337083 4.81902e-19)
(1.84195 0.396471 2.5797e-19)
(1.81536 0.41243 2.72105e-19)
(1.76397 0.39969 -5.64432e-19)
(1.67554 0.36905 2.95623e-19)
(1.59531 0.290039 -3.11921e-19)
(1.6099 0.122276 0)
(1.65019 -0.112154 2.94111e-19)
(1.62699 -0.306025 0)
(1.23576 0.0903185 0)
(0.220497 1.13152 0)