/*--------------------------------*- C++ -*----------------------------------*\
| =========                 |                                                 |
| \\      /  F ield         | OpenFOAM: The Open Source CFD Toolbox           |
|  \\    /   O peration     | Version:  4.x                                   |
|   \\  /    A nd           | Web:      www.OpenFOAM.org                      |
|    \\/     M anipulation  |                                                 |
\*---------------------------------------------------------------------------*/
FoamFile
{
    version     2.0;
    format      ascii;
    class       volScalarField;
    location    "400";
    object      k;
}
// * * * * * * * * * * * * * * * * * * * * * * * * * * * * * * * * * * * * * //

dimensions      [0 2 -2 0 0 0 0];

internalField   nonuniform List<scalar> 
12225
(
0.545332
0.818803
0.988978
1.0766
1.10264
1.09675
1.07978
1.04972
1.01761
0.986877
0.958413
0.932233
0.909681
0.888277
0.872179
0.854278
0.845359
0.829397
0.381344
0.390052
0.402906
0.418167
0.431908
0.447898
0.463448
0.483272
0.502843
0.527331
0.544323
0.567128
0.58187
0.602801
0.61518
0.634049
0.643669
0.65988
0.374665
0.37386
0.372615
0.369434
0.365393
0.36008
0.354976
0.349837
0.345638
0.342308
0.339422
0.337259
0.335365
0.334067
0.332944
0.332284
0.331581
0.331615
0.374246
0.371858
0.370101
0.367421
0.364819
0.361179
0.357771
0.353547
0.34978
0.345454
0.341718
0.337543
0.334009
0.330023
0.326659
0.322975
0.319813
0.31656
0.374068
0.371612
0.36973
0.367431
0.365345
0.362745
0.360356
0.3575
0.354907
0.351932
0.349284
0.346254
0.343596
0.340607
0.338033
0.33513
0.332708
0.32995
0.373949
0.371598
0.369623
0.367508
0.365602
0.363482
0.361521
0.359351
0.357335
0.35514
0.353118
0.350927
0.348922
0.346747
0.344792
0.342657
0.340799
0.338738
0.373886
0.371596
0.369547
0.367505
0.365635
0.363731
0.361953
0.360119
0.358389
0.356605
0.354923
0.353186
0.351554
0.349856
0.348278
0.346623
0.345121
0.343522
0.37386
0.371588
0.3695
0.367474
0.365594
0.363754
0.362027
0.360318
0.3587
0.357088
0.355557
0.354024
0.352569
0.351099
0.349712
0.348297
0.346985
0.345628
0.373846
0.371581
0.369469
0.367445
0.36555
0.363728
0.362013
0.360354
0.358781
0.357251
0.355794
0.354369
0.35301
0.351668
0.350392
0.349121
0.347924
0.346716
0.373837
0.371574
0.369446
0.367419
0.365509
0.363688
0.361969
0.360325
0.358766
0.35727
0.355848
0.354476
0.35317
0.351903
0.350695
0.349515
0.348394
0.34729
0.373832
0.371567
0.369428
0.367397
0.365476
0.363651
0.361923
0.360278
0.358717
0.357228
0.355813
0.354461
0.353173
0.351938
0.35076
0.349625
0.348542
0.347497
0.373829
0.371561
0.369415
0.36738
0.365452
0.363621
0.361884
0.360234
0.358666
0.357175
0.355756
0.354404
0.353117
0.351889
0.350718
0.349598
0.348528
0.347504
0.373828
0.371557
0.369406
0.367367
0.365433
0.363597
0.361855
0.360199
0.358625
0.357128
0.355703
0.354347
0.353055
0.351824
0.35065
0.34953
0.34846
0.347439
0.373826
0.371554
0.369399
0.367357
0.365419
0.363579
0.361832
0.360171
0.358592
0.35709
0.355661
0.3543
0.353002
0.351767
0.350588
0.349464
0.34839
0.347366
0.373826
0.371552
0.369395
0.367349
0.365408
0.363565
0.361814
0.36015
0.358567
0.357061
0.355628
0.354262
0.352961
0.351721
0.350538
0.349411
0.348333
0.347306
0.373825
0.37155
0.369392
0.367344
0.365401
0.363555
0.361802
0.360135
0.358549
0.35704
0.355603
0.354235
0.35293
0.351687
0.350501
0.34937
0.34829
0.34726
0.373825
0.371549
0.36939
0.367341
0.365396
0.363549
0.361793
0.360124
0.358536
0.357025
0.355586
0.354215
0.352909
0.351663
0.350475
0.349342
0.34826
0.347228
0.373825
0.371549
0.369389
0.36734
0.365394
0.363546
0.36179
0.360119
0.35853
0.357018
0.355577
0.354205
0.352897
0.35165
0.350461
0.349326
0.348243
0.34721
0.373825
0.371549
0.36939
0.367341
0.365395
0.363547
0.36179
0.360119
0.35853
0.357017
0.355576
0.354203
0.352895
0.351647
0.350458
0.349323
0.348239
0.347205
0.373825
0.37155
0.369391
0.367343
0.365398
0.36355
0.361794
0.360124
0.358535
0.357022
0.355581
0.354209
0.352901
0.351653
0.350464
0.349329
0.348246
0.347212
0.373826
0.371551
0.369394
0.367347
0.365403
0.363556
0.361801
0.360132
0.358544
0.357032
0.355592
0.35422
0.352913
0.351666
0.350477
0.349342
0.348259
0.347226
0.373826
0.371553
0.369398
0.367353
0.36541
0.363566
0.361812
0.360145
0.358558
0.357047
0.355607
0.354235
0.352927
0.35168
0.350489
0.349353
0.348267
0.34723
0.373826
0.371557
0.369404
0.367362
0.365421
0.363579
0.361826
0.360159
0.358569
0.357055
0.355609
0.35423
0.352912
0.351655
0.350451
0.349301
0.348198
0.347145
0.373825
0.371566
0.369416
0.367373
0.365427
0.363582
0.361821
0.360142
0.358531
0.356989
0.355509
0.354093
0.352734
0.351433
0.35018
0.348978
0.347815
0.346703
0.373822
0.37159
0.36943
0.367363
0.365378
0.363503
0.361697
0.359963
0.358271
0.356637
0.355048
0.353523
0.352042
0.350622
0.349236
0.347904
0.346596
0.345343
0.373838
0.371637
0.369411
0.367234
0.36512
0.363166
0.361238
0.359354
0.357448
0.355591
0.353748
0.351974
0.350228
0.348549
0.346888
0.345287
0.343696
0.342175
0.37393
0.371744
0.369375
0.366978
0.364616
0.362491
0.360254
0.358025
0.355656
0.353334
0.350974
0.348707
0.346453
0.344289
0.342147
0.340086
0.338052
0.336113
0.374265
0.372418
0.370126
0.367767
0.365152
0.362683
0.359846
0.357034
0.353955
0.351027
0.348078
0.345346
0.342773
0.34037
0.338247
0.336201
0.334525
0.332796
0.376883
0.378416
0.381142
0.384678
0.388175
0.39213
0.396125
0.400645
0.405506
0.41096
0.41686
0.423191
0.430186
0.437271
0.445259
0.452827
0.460932
0.467824
0.451331
0.582014
0.686073
0.765513
0.822344
0.862009
0.886856
0.90255
0.911796
0.915948
0.915113
0.912815
0.907428
0.90081
0.892315
0.88393
0.875824
0.868054
4.25545e-06
3.38981e-05
8.73873e-05
0.00016953
0.000269789
0.000383181
0.00056087
0.00085847
0.00130593
0.00190322
0.00257071
0.00325135
0.0039022
0.00448259
0.00497891
0.0053883
0.00570926
0.00593238
0.00608369
0.00610173
0.00607267
0.00599403
0.00578846
0.00543243
0.0049092
0.00420152
0.00332009
0.00231914
0.00133279
0.00057051
0.000164779
4.56034e-05
3.5944e-05
3.93078e-05
4.54945e-05
5.45855e-05
6.58199e-05
7.51374e-05
8.47289e-05
0.000118351
0.000295854
0.000669178
0.00131123
0.0018884
0.00229314
0.00232463
0.0022362
0.00202862
0.00176609
0.00154127
0.00144387
0.00161259
0.0021838
0.00233182
0.00270944
0.00342122
0.00545381
0.0158632
0.0339938
0.0530057
0.0710971
0.0880213
0.103836
0.118696
0.13278
0.146264
0.159397
0.171605
0.183268
0.19426
0.204811
0.214877
0.224603
0.233979
0.243101
0.251962
0.260624
0.26908
0.277381
0.285516
0.293519
0.301379
0.309119
0.316728
0.32422
0.331586
0.338831
0.345948
0.352936
0.359787
0.366495
0.373051
0.379447
0.385671
0.391712
0.397558
0.4032
0.408633
0.413856
0.418883
0.423745
0.428506
0.433074
0.43747
0.441691
0.445733
0.449595
0.453273
0.456765
0.460066
0.463176
0.466091
0.46881
0.471331
0.473653
0.475772
0.477689
0.479402
0.480909
0.482209
0.483301
0.484183
0.484856
0.48532
0.485574
0.485621
0.485534
0.485264
0.484723
0.48402
0.483115
0.482001
0.48063
0.478995
0.477228
0.475266
0.473155
0.470821
0.46829
0.465629
0.462791
0.459818
0.456696
0.453444
0.450063
0.446565
0.442953
0.439236
0.435417
0.4315
0.427484
0.423377
0.419195
0.414874
0.410534
0.406035
0.401559
0.396926
0.392366
0.387656
0.383027
0.378328
0.373663
0.368989
0.364318
0.359646
0.354968
0.350283
0.345591
0.340894
0.336194
0.33149
0.326774
0.322026
0.317211
0.312242
0.307073
0.301291
0.294509
0.279352
2.08759e-05
1.38496e-05
4.57556e-05
0.000114651
0.000279144
0.000802275
0.00188197
0.00357495
0.00568809
0.00788362
0.0099768
0.0118263
0.0133017
0.0143284
0.0149494
0.0152305
0.0151867
0.014999
0.0146307
0.0141148
0.0134037
0.0125039
0.0114383
0.0101935
0.00885081
0.00735937
0.00591344
0.00453454
0.00323454
0.00210568
0.00124952
0.00069586
0.000381642
0.000215173
0.000132097
9.32672e-05
8.42269e-05
0.000126987
0.000235414
0.000438705
0.00193399
0.0041387
0.00755447
0.0102424
0.0118324
0.0118487
0.011414
0.0102428
0.00866417
0.00826964
0.00911247
0.0122181
0.0163372
0.0213259
0.029685
0.0419353
0.0590752
0.0833599
0.107863
0.133499
0.159435
0.185503
0.211979
0.238244
0.264539
0.290295
0.31558
0.34002
0.363733
0.386565
0.408631
0.429918
0.450546
0.47057
0.490073
0.509113
0.527766
0.546053
0.564059
0.581796
0.599311
0.616615
0.633735
0.650677
0.667454
0.684068
0.700523
0.716818
0.732948
0.748908
0.764689
0.780278
0.795662
0.810822
0.825738
0.840383
0.85473
0.868748
0.882402
0.895657
0.908478
0.920851
0.932975
0.944805
0.95636
0.967619
0.978579
0.98923
0.999564
1.00957
1.01925
1.02859
1.03758
1.04623
1.05451
1.06244
1.06999
1.07717
1.08397
1.09039
1.09642
1.10205
1.10728
1.1121
1.11652
1.12054
1.12415
1.12735
1.13016
1.13258
1.13462
1.13633
1.13773
1.13878
1.13925
1.1396
1.13966
1.13931
1.13843
1.13724
1.13569
1.13381
1.13162
1.12913
1.12635
1.12329
1.11996
1.11638
1.11255
1.10848
1.10416
1.09962
1.09481
1.08979
1.0845
1.07903
1.07331
1.06746
1.0614
1.05525
1.04899
1.04269
1.03633
1.02994
1.02352
1.01705
1.01055
1.004
0.997401
0.990764
0.984094
0.977394
0.970655
0.963844
0.956896
0.949665
0.942004
0.933307
0.921823
0.896659
2.49148e-05
1.09259e-05
4.79245e-05
0.000199736
0.000632308
0.00195316
0.00427065
0.00711691
0.0100453
0.0127924
0.0152009
0.0171437
0.0186064
0.0196271
0.020251
0.0205697
0.0205541
0.0204162
0.0200935
0.0196025
0.0189807
0.0182335
0.0173481
0.0163148
0.0150983
0.0137338
0.0121044
0.0102888
0.00840304
0.00651669
0.00478767
0.0032177
0.00204659
0.00130067
0.000847147
0.000595656
0.000462376
0.000498399
0.000865883
0.00163338
0.00563446
0.0119466
0.0183886
0.0229605
0.0254988
0.0263375
0.0265818
0.0268464
0.0280176
0.0329954
0.0432798
0.0597275
0.0757259
0.094289
0.117375
0.142978
0.172109
0.202512
0.235969
0.271399
0.30828
0.345855
0.38367
0.420965
0.457426
0.492595
0.526375
0.558659
0.589532
0.619075
0.647455
0.674807
0.701278
0.727004
0.752086
0.776616
0.800685
0.824351
0.847673
0.870685
0.893422
0.915905
0.938154
0.960179
0.981989
1.00359
1.02497
1.04614
1.0671
1.08782
1.10832
1.12856
1.14856
1.16828
1.18772
1.20686
1.22569
1.2442
1.26238
1.28022
1.29773
1.31491
1.33175
1.3482
1.36427
1.37994
1.39519
1.41001
1.42439
1.43832
1.45179
1.46479
1.47731
1.48935
1.5009
1.51195
1.5225
1.53254
1.54206
1.55105
1.55952
1.56745
1.57483
1.58167
1.58796
1.59369
1.59886
1.60348
1.60754
1.61104
1.61398
1.61637
1.61821
1.61946
1.62002
1.62026
1.61999
1.61913
1.61772
1.61583
1.61345
1.61061
1.60734
1.60364
1.59954
1.59506
1.5902
1.58498
1.57942
1.57352
1.56729
1.56071
1.55379
1.54656
1.53895
1.53108
1.52287
1.51445
1.50575
1.4969
1.48787
1.47875
1.46952
1.46023
1.45087
1.44144
1.43194
1.42238
1.41276
1.40308
1.39336
1.38362
1.37385
1.36404
1.35414
1.34404
1.33358
1.32236
1.30844
1.28496
2.48015e-05
2.37559e-05
0.00015616
0.00075128
0.00212774
0.00534269
0.00946537
0.0136201
0.0174011
0.020572
0.0230232
0.0247806
0.0258785
0.0264615
0.0265685
0.0264449
0.026113
0.0255808
0.0249408
0.0242205
0.0234371
0.0225912
0.0216724
0.0206696
0.019555
0.018311
0.0168994
0.0152897
0.0134888
0.0115578
0.00956759
0.00767832
0.00585283
0.0043091
0.00304876
0.00225891
0.00175563
0.00156984
0.00359528
0.00755834
0.0192871
0.031495
0.0404351
0.0459895
0.0490778
0.050951
0.0560175
0.0685009
0.0842962
0.100314
0.117031
0.134212
0.153742
0.178329
0.207788
0.240819
0.278189
0.317532
0.359217
0.401694
0.444557
0.487159
0.529139
0.570151
0.61001
0.64857
0.685798
0.721712
0.756389
0.789926
0.822445
0.854068
0.884895
0.915038
0.944582
0.97361
1.00219
1.03036
1.05819
1.08569
1.11289
1.13981
1.16648
1.19289
1.21906
1.24498
1.27065
1.29608
1.32125
1.34617
1.37081
1.39518
1.41927
1.44305
1.46653
1.48968
1.5125
1.53497
1.55709
1.57883
1.60019
1.62113
1.64164
1.66169
1.68127
1.70034
1.7189
1.73692
1.7544
1.77132
1.78766
1.80343
1.8186
1.83318
1.84714
1.8605
1.87323
1.88534
1.89681
1.90764
1.91782
1.92735
1.93621
1.9444
1.95192
1.95876
1.96491
1.97038
1.97515
1.97923
1.98261
1.98529
1.98728
1.98849
1.98896
1.98897
1.98826
1.98689
1.98487
1.98224
1.97902
1.97523
1.9709
1.96605
1.9607
1.95487
1.94859
1.94187
1.93472
1.92716
1.91918
1.91079
1.90199
1.89278
1.88315
1.87315
1.86277
1.8521
1.8411
1.82989
1.81847
1.80689
1.79518
1.78336
1.77144
1.75944
1.74734
1.73517
1.72292
1.71061
1.69826
1.6859
1.67354
1.66118
1.64879
1.63632
1.62363
1.61047
1.59512
1.57308
3.3415e-05
8.08191e-05
0.000552011
0.00209416
0.00600507
0.0119986
0.0178569
0.0228603
0.026688
0.0293061
0.0308849
0.0316608
0.0317861
0.0315987
0.0311185
0.0304217
0.0296299
0.0287875
0.0279255
0.0270615
0.0262013
0.0253365
0.0244516
0.0235279
0.0225383
0.0214568
0.0202535
0.0188963
0.0173519
0.0156169
0.0137331
0.0117937
0.00990664
0.00807729
0.00678122
0.00536107
0.00510817
0.00656452
0.0143384
0.031403
0.0513274
0.0666068
0.0767525
0.0840604
0.0919115
0.102517
0.114936
0.127531
0.14071
0.15546
0.173546
0.197442
0.226061
0.260057
0.298042
0.338655
0.381307
0.424781
0.468928
0.513063
0.557044
0.600644
0.643717
0.686112
0.727713
0.768434
0.808223
0.847074
0.88501
0.922074
0.958327
0.993842
1.02869
1.06295
1.09667
1.12992
1.16274
1.19518
1.22726
1.25901
1.29045
1.3216
1.35246
1.38305
1.41336
1.4434
1.47317
1.50266
1.53187
1.56079
1.5894
1.61771
1.6457
1.67336
1.70068
1.72764
1.75422
1.78041
1.80619
1.83153
1.85642
1.88081
1.90469
1.92803
1.9508
1.97299
1.99457
2.01553
2.03583
2.05547
2.07443
2.09271
2.11028
2.12715
2.1433
2.15872
2.17342
2.18737
2.20058
2.21304
2.22473
2.23566
2.24581
2.25518
2.26376
2.27154
2.27852
2.28469
2.29005
2.29459
2.2983
2.3012
2.30328
2.30441
2.30479
2.3045
2.30339
2.30151
2.29888
2.29554
2.29149
2.28678
2.28142
2.27545
2.2689
2.26179
2.25414
2.24598
2.23733
2.22818
2.21856
2.20846
2.19787
2.18681
2.17527
2.16329
2.15088
2.13809
2.12495
2.11154
2.09787
2.084
2.06996
2.05579
2.04149
2.02708
2.01256
1.99794
1.98324
1.96848
1.95368
1.93889
1.92412
1.9094
1.89473
1.88007
1.86534
1.85036
1.83371
1.81198
2.88219e-05
0.000244041
0.00161549
0.00573406
0.0141138
0.0221603
0.0283711
0.0325408
0.0349552
0.0360957
0.0363668
0.0361436
0.0355341
0.0346332
0.0336044
0.0325238
0.0314455
0.0304081
0.0294317
0.028521
0.0276678
0.0268558
0.0260633
0.0252648
0.024429
0.023523
0.0225169
0.021385
0.0201047
0.0186575
0.0170593
0.0153795
0.0137225
0.0119856
0.0103688
0.0106017
0.0142899
0.0268245
0.0512856
0.075978
0.0963841
0.110887
0.120899
0.128844
0.136649
0.14519
0.154888
0.166623
0.18346
0.20549
0.232926
0.265778
0.30275
0.342885
0.384845
0.427771
0.471312
0.515088
0.559033
0.602992
0.646948
0.690831
0.734562
0.778039
0.821157
0.863822
0.905956
0.947505
0.98845
1.02879
1.06854
1.10774
1.14641
1.18461
1.22236
1.2597
1.29666
1.33326
1.36953
1.40547
1.4411
1.47643
1.51145
1.54618
1.58062
1.61476
1.6486
1.68213
1.71535
1.74825
1.78081
1.81303
1.8449
1.87641
1.90753
1.93824
1.96854
1.99839
2.02776
2.05664
2.08498
2.11277
2.13996
2.16654
2.19247
2.21772
2.24228
2.26611
2.28919
2.31151
2.33305
2.35378
2.37371
2.39281
2.41108
2.42852
2.44512
2.46086
2.47575
2.48978
2.50293
2.5152
2.52658
2.53707
2.54666
2.55533
2.56308
2.56991
2.57581
2.58078
2.58481
2.58789
2.59003
2.5911
2.59135
2.59075
2.58924
2.58685
2.58361
2.57953
2.57466
2.56902
2.56263
2.55554
2.54778
2.53938
2.53037
2.52078
2.51062
2.49991
2.48866
2.47686
2.46452
2.45164
2.43822
2.42429
2.40987
2.39502
2.37978
2.3642
2.34834
2.33223
2.31593
2.29946
2.28283
2.26607
2.24918
2.23218
2.21508
2.19793
2.18075
2.16358
2.14648
2.12947
2.11256
2.09576
2.07902
2.06217
2.04405
2.02179
5.20145e-05
0.000771871
0.00448074
0.0142946
0.0252531
0.0328997
0.0373877
0.039666
0.0405485
0.0405195
0.0400184
0.0389947
0.037728
0.0363448
0.0349388
0.0335784
0.0323087
0.0311563
0.0301289
0.0292194
0.0284107
0.0276776
0.0269912
0.0263165
0.0256168
0.0248467
0.0239692
0.0229597
0.021794
0.0204431
0.0188751
0.0170921
0.0152978
0.014933
0.017096
0.0259816
0.0456707
0.0735264
0.101459
0.124216
0.139724
0.148597
0.153729
0.158226
0.163978
0.173097
0.187366
0.206985
0.23224
0.262709
0.297634
0.335934
0.376313
0.417876
0.460025
0.50253
0.545313
0.58834
0.631645
0.675244
0.719152
0.763342
0.807755
0.8523
0.896866
0.941351
0.985662
1.02973
1.07349
1.11692
1.15999
1.20271
1.24508
1.2871
1.3288
1.37018
1.41125
1.45201
1.49248
1.53264
1.5725
1.61205
1.6513
1.69023
1.72885
1.76715
1.80513
1.84276
1.88006
1.91699
1.95356
1.98975
2.02555
2.06094
2.0959
2.13042
2.16446
2.198
2.23101
2.26345
2.2953
2.32652
2.35707
2.38693
2.41605
2.44442
2.47199
2.49874
2.52463
2.54966
2.57379
2.59701
2.6193
2.64065
2.66106
2.68051
2.69901
2.71654
2.73309
2.74867
2.76326
2.77686
2.78945
2.80104
2.8116
2.82114
2.82964
2.8371
2.84352
2.84888
2.85319
2.85644
2.85861
2.8596
2.85971
2.85879
2.85685
2.85393
2.85004
2.84521
2.83949
2.83289
2.82546
2.81722
2.80822
2.79851
2.7881
2.77705
2.76536
2.75306
2.74016
2.72665
2.71254
2.69782
2.6825
2.66661
2.65017
2.63325
2.61589
2.59815
2.58008
2.56175
2.54318
2.52441
2.50547
2.48636
2.4671
2.44772
2.42824
2.4087
2.38914
2.36963
2.3502
2.33089
2.31175
2.29279
2.27398
2.25518
2.23536
2.21198
0.000518135
0.00235435
0.0108169
0.0258647
0.035846
0.0412933
0.0439562
0.044923
0.044814
0.0440513
0.0426816
0.0410232
0.0392316
0.0374298
0.0357092
0.0341315
0.0327302
0.0315159
0.0304806
0.0296028
0.0288526
0.0281944
0.0275873
0.0269863
0.0263318
0.0255955
0.0247641
0.0238559
0.0229027
0.0220162
0.021455
0.02172
0.0239859
0.0301845
0.0435545
0.0679923
0.0964344
0.123065
0.144753
0.158892
0.165695
0.168947
0.171373
0.177271
0.188366
0.204933
0.227167
0.254623
0.28664
0.32222
0.360274
0.399862
0.440194
0.480943
0.521997
0.563381
0.605156
0.647393
0.690165
0.733529
0.777509
0.822089
0.867209
0.912787
0.958728
1.00493
1.05129
1.09773
1.14416
1.19053
1.2368
1.28293
1.32891
1.37471
1.42032
1.46574
1.51094
1.55591
1.60063
1.64509
1.68926
1.73314
1.77671
1.81995
1.86286
1.90543
1.94764
1.98949
2.03095
2.07202
2.11268
2.15292
2.19273
2.23208
2.27097
2.30935
2.34721
2.38451
2.42122
2.45731
2.49273
2.52744
2.56142
2.59462
2.627
2.65853
2.68916
2.71888
2.74764
2.77541
2.80217
2.82789
2.85257
2.87619
2.89873
2.92021
2.9406
2.9599
2.97811
2.99523
3.01124
3.02613
3.0399
3.05255
3.06405
3.07441
3.08362
3.09168
3.09856
3.10428
3.10883
3.11221
3.11436
3.11527
3.11515
3.11388
3.11148
3.10798
3.10341
3.0978
3.09118
3.08359
3.07506
3.06564
3.05537
3.04429
3.03245
3.01989
3.00663
2.9927
2.9781
2.96284
2.94692
2.93034
2.91309
2.89521
2.87673
2.85771
2.8382
2.81828
2.79801
2.77743
2.75659
2.73552
2.71424
2.69278
2.67115
2.64937
2.6275
2.60556
2.58363
2.56175
2.53998
2.51838
2.49698
2.47581
2.45487
2.43401
2.41232
2.38737
0.00205849
0.00579621
0.0213388
0.0362156
0.0441514
0.0479818
0.0494678
0.0494711
0.0486063
0.0469675
0.0449322
0.0427033
0.0404458
0.0382867
0.0363148
0.034581
0.0331035
0.0318737
0.0308641
0.0300358
0.0293452
0.0287446
0.0281769
0.0275771
0.0269154
0.0261728
0.0253541
0.0246538
0.0241202
0.0243888
0.0264283
0.0319722
0.0439769
0.0636658
0.0886007
0.114025
0.137525
0.156185
0.167855
0.173818
0.176544
0.180263
0.188079
0.201254
0.220057
0.244103
0.272735
0.305058
0.340162
0.377183
0.415312
0.454033
0.493086
0.532459
0.572224
0.612489
0.653362
0.694946
0.73733
0.780577
0.824707
0.869705
0.915533
0.962122
1.00939
1.05723
1.10556
1.15427
1.20327
1.2525
1.30189
1.35139
1.40094
1.45051
1.50006
1.54954
1.59892
1.64817
1.69724
1.74609
1.7947
1.84302
1.89103
1.93871
1.98604
2.03299
2.07956
2.12571
2.17145
2.21675
2.26159
2.30597
2.34987
2.39327
2.43615
2.47847
2.52021
2.56134
2.6018
2.64158
2.68062
2.71888
2.75631
2.79289
2.82856
2.86327
2.897
2.9297
2.96133
2.99186
3.02125
3.04948
3.07654
3.1024
3.12706
3.15052
3.17277
3.19381
3.21363
3.23223
3.2496
3.26574
3.28063
3.29426
3.30664
3.31776
3.3276
3.33617
3.34346
3.34946
3.35417
3.3576
3.35968
3.36044
3.36002
3.35833
3.3554
3.35127
3.34595
3.3395
3.33193
3.3233
3.31362
3.30296
3.29135
3.27885
3.26552
3.2514
3.23653
3.22091
3.20458
3.18754
3.16977
3.15129
3.13208
3.11218
3.09163
3.07049
3.04882
3.02671
3.0042
2.98137
2.95825
2.93488
2.91127
2.88744
2.86343
2.83926
2.81498
2.79065
2.76633
2.74209
2.71798
2.69406
2.67038
2.64697
2.62384
2.60084
2.57716
2.55039
0.00455057
0.0113613
0.0320487
0.0452968
0.0515386
0.0541751
0.0547009
0.0539139
0.0521713
0.0498389
0.0471856
0.0444319
0.0417583
0.0392984
0.0371356
0.0353061
0.0338075
0.0326121
0.0316757
0.0309445
0.030374
0.0299204
0.0295489
0.0292896
0.0292056
0.0293872
0.0301201
0.0316499
0.0344786
0.039648
0.0488605
0.0638109
0.082748
0.103953
0.125398
0.144542
0.159632
0.16979
0.175838
0.180405
0.186629
0.196866
0.212251
0.232798
0.257925
0.286799
0.318596
0.35258
0.388045
0.424423
0.461311
0.498535
0.536096
0.574097
0.612671
0.651953
0.692072
0.733142
0.775251
0.818454
0.862783
0.908241
0.954799
1.0024
1.05098
1.10045
1.15071
1.20167
1.25323
1.3053
1.35781
1.41068
1.46383
1.5172
1.57073
1.62435
1.678
1.73161
1.78512
1.83847
1.89162
1.9445
1.99708
2.04932
2.10118
2.15263
2.20365
2.25422
2.30432
2.35392
2.40302
2.4516
2.49965
2.54715
2.59406
2.64036
2.68602
2.73098
2.77522
2.81869
2.86135
2.90315
2.94404
2.98397
3.02289
3.06077
3.09755
3.1332
3.16766
3.20089
3.23287
3.26355
3.29292
3.32095
3.34766
3.37302
3.39704
3.41972
3.44106
3.46104
3.47967
3.49693
3.51283
3.52734
3.54048
3.55223
3.56259
3.57156
3.57913
3.58529
3.59006
3.59343
3.59534
3.59586
3.59503
3.59283
3.58929
3.58443
3.5783
3.57092
3.56234
3.55259
3.54171
3.52974
3.51674
3.50276
3.48788
3.47214
3.45558
3.43824
3.42013
3.40126
3.38161
3.36119
3.33999
3.31805
3.29541
3.27213
3.24829
3.22397
3.19923
3.17414
3.14875
3.12307
3.09714
3.07096
3.04456
3.018
2.99133
2.9646
2.9379
2.91129
2.88484
2.85861
2.83263
2.80696
2.7816
2.75641
2.73068
2.70218
0.00710155
0.0187523
0.0418656
0.0532833
0.0583652
0.0601606
0.0599569
0.0584132
0.0559827
0.0530164
0.0498098
0.0466096
0.0436092
0.0409424
0.038681
0.0368433
0.0354069
0.0343262
0.0335415
0.0329719
0.0326384
0.0324548
0.0324341
0.0327509
0.0336414
0.0354834
0.0389333
0.0447648
0.0536897
0.0659567
0.0810431
0.0976104
0.115056
0.132036
0.147148
0.159334
0.168487
0.175596
0.182577
0.191542
0.204404
0.221778
0.243531
0.269037
0.297518
0.328251
0.360696
0.39434
0.428771
0.463707
0.499012
0.534691
0.570846
0.607618
0.645162
0.683626
0.723146
0.763827
0.805762
0.84902
0.893643
0.939643
0.987008
1.0357
1.08566
1.13681
1.18907
1.24233
1.29651
1.3515
1.4072
1.46352
1.52036
1.57763
1.63523
1.69306
1.75105
1.80911
1.86716
1.92511
1.98289
2.04043
2.09768
2.15457
2.21106
2.2671
2.32265
2.3777
2.4322
2.48614
2.53952
2.59232
2.64453
2.69612
2.74706
2.79731
2.84684
2.89559
2.94354
2.99064
3.03684
3.08208
3.12632
3.1695
3.21157
3.25249
3.2922
3.33066
3.36782
3.40363
3.43805
3.47104
3.50257
3.53263
3.56121
3.58831
3.61394
3.6381
3.66078
3.68197
3.70168
3.7199
3.73662
3.75185
3.76557
3.77778
3.78848
3.79767
3.80535
3.81152
3.81618
3.81933
3.82094
3.82106
3.81971
3.81686
3.81258
3.80689
3.79984
3.79145
3.78176
3.77082
3.75865
3.74532
3.73086
3.71535
3.69885
3.68143
3.66315
3.64403
3.6241
3.60336
3.5818
3.55942
3.53622
3.51223
3.4875
3.46208
3.43607
3.40955
3.3826
3.35528
3.32763
3.29968
3.27144
3.24294
3.21419
3.18526
3.15622
3.12713
3.09807
3.06913
3.04036
3.01183
2.98357
2.95563
2.92804
2.90062
2.87284
2.84243
0.00903632
0.0270725
0.0502202
0.0608533
0.0652483
0.0664008
0.0655679
0.0633908
0.0603634
0.0568804
0.0532685
0.0497908
0.0466417
0.0439463
0.0417628
0.040095
0.0389046
0.038158
0.0378265
0.0378037
0.0381955
0.0390979
0.0406879
0.0433141
0.0473652
0.0530973
0.0607248
0.0702943
0.0816717
0.0945538
0.108317
0.122149
0.135357
0.147281
0.157613
0.166636
0.175207
0.184692
0.196482
0.211754
0.230657
0.253025
0.278301
0.305861
0.335194
0.36585
0.397499
0.429865
0.462757
0.496079
0.529836
0.564115
0.599051
0.634803
0.671532
0.709382
0.748487
0.788964
0.830909
0.874399
0.91949
0.966211
1.01456
1.06452
1.11603
1.16904
1.22346
1.27921
1.33616
1.39422
1.45328
1.51321
1.5739
1.63521
1.69701
1.75919
1.82162
1.88421
1.94685
2.00946
2.07193
2.13419
2.19615
2.25774
2.31889
2.37955
2.43966
2.49917
2.55805
2.61628
2.67388
2.73083
2.78712
2.84271
2.89756
2.95163
3.00488
3.05727
3.10875
3.15929
3.20883
3.25731
3.30468
3.35088
3.39587
3.43958
3.48197
3.52299
3.56259
3.60072
3.63732
3.67236
3.7058
3.73761
3.76781
3.7964
3.82337
3.84873
3.87249
3.89464
3.91517
3.93408
3.95137
3.96704
3.98109
3.99351
4.00431
4.01348
4.02104
4.02698
4.03132
4.03405
4.03517
4.03471
4.03265
4.029
4.02384
4.01718
4.00908
3.99956
3.98866
3.97643
3.96291
3.94813
3.93216
3.91506
3.89689
3.87775
3.85769
3.83675
3.81497
3.79234
3.76886
3.74451
3.71931
3.69329
3.66649
3.63898
3.61083
3.58216
3.55303
3.52352
3.49367
3.46351
3.43303
3.40225
3.37122
3.33998
3.30862
3.27723
3.24588
3.21467
3.18364
3.15285
3.12235
3.09218
3.06238
3.03275
3.00294
2.97062
0.0101706
0.0344401
0.058137
0.0684102
0.0723544
0.0730719
0.071723
0.0690219
0.0655478
0.061757
0.0580063
0.0545574
0.0515836
0.049187
0.0474209
0.0463106
0.0458372
0.0457919
0.0463381
0.0475237
0.0494693
0.0523363
0.0562929
0.0614365
0.0677861
0.0754056
0.0842122
0.094034
0.104601
0.115551
0.126481
0.137053
0.147135
0.156832
0.166523
0.176877
0.188736
0.202921
0.21987
0.239692
0.262085
0.286641
0.31295
0.340624
0.369366
0.398943
0.429194
0.460006
0.491328
0.523172
0.555611
0.58877
0.622795
0.65784
0.694067
0.731625
0.770647
0.811243
0.853517
0.897558
0.943431
0.991181
1.04082
1.09235
1.14573
1.20091
1.25782
1.31636
1.37642
1.43787
1.50058
1.56441
1.62919
1.69477
1.76097
1.82761
1.89455
1.96168
2.02889
2.09609
2.16319
2.23009
2.2967
2.36292
2.42867
2.49388
2.55844
2.62229
2.6854
2.74776
2.80939
2.8703
2.93045
2.9898
3.04831
3.10592
3.1626
3.21831
3.273
3.32663
3.37915
3.43049
3.48061
3.52944
3.57693
3.62303
3.66768
3.71085
3.75247
3.7925
3.83088
3.86756
3.9025
3.93568
3.9671
3.99678
4.02471
4.0509
4.07536
4.09807
4.11905
4.1383
4.1558
4.17157
4.1856
4.1979
4.20847
4.21731
4.22445
4.22988
4.23361
4.23566
4.23603
4.23477
4.23178
4.22713
4.2209
4.21312
4.20381
4.19303
4.18081
4.16719
4.15222
4.13593
4.11838
4.09964
4.07976
4.05885
4.03698
4.01421
3.99056
3.96605
3.94065
3.91436
3.88719
3.85918
3.83038
3.80084
3.77063
3.73986
3.70864
3.67703
3.64508
3.61279
3.58017
3.54722
3.514
3.48056
3.44699
3.41339
3.37985
3.34646
3.31326
3.28031
3.24765
3.21532
3.18339
3.1516
3.11985
3.08571
0.0107868
0.0410112
0.0659716
0.0762007
0.0798202
0.0802098
0.0784029
0.0752784
0.071538
0.0677173
0.0641893
0.0611795
0.0588065
0.057109
0.0562334
0.0559801
0.0563389
0.0574249
0.0592507
0.0618439
0.0652575
0.0695393
0.0747089
0.0807492
0.0876047
0.0951876
0.103371
0.112008
0.120942
0.130062
0.139348
0.148904
0.158931
0.169755
0.181825
0.195588
0.21138
0.229347
0.249413
0.271357
0.294907
0.319781
0.345735
0.372573
0.400157
0.428396
0.457243
0.486692
0.516776
0.54757
0.579171
0.611701
0.645305
0.680142
0.71637
0.754144
0.793605
0.834846
0.877979
0.92311
0.970319
1.01966
1.07116
1.12484
1.18066
1.23859
1.29854
1.36043
1.4241
1.48941
1.55619
1.62426
1.69342
1.76347
1.83419
1.90533
1.9767
2.04818
2.11971
2.19123
2.26266
2.33393
2.40491
2.4755
2.54559
2.61507
2.68382
2.75171
2.81871
2.88487
2.95019
3.01467
3.07827
3.14094
3.20264
3.26331
3.32291
3.3814
3.43874
3.49489
3.54981
3.60342
3.65569
3.70654
3.75592
3.80378
3.85008
3.89477
3.9378
3.97911
4.01865
4.05638
4.09225
4.12622
4.15832
4.18854
4.2169
4.24339
4.26803
4.29082
4.31175
4.33085
4.3481
4.36351
4.37709
4.38884
4.39877
4.40689
4.41322
4.41778
4.42057
4.42162
4.42098
4.4186
4.41441
4.40854
4.40104
4.39194
4.38126
4.36907
4.35538
4.34026
4.32374
4.30587
4.2867
4.26629
4.24466
4.22197
4.1983
4.17369
4.14819
4.12181
4.09453
4.06634
4.03728
4.00737
3.97667
3.94521
3.91305
3.88032
3.84712
3.81354
3.7796
3.74533
3.7107
3.67574
3.64048
3.60498
3.56935
3.5337
3.49812
3.4627
3.42747
3.39249
3.3578
3.32343
3.28948
3.25565
3.22204
3.18634
0.0110347
0.0474947
0.0736033
0.0839716
0.0874078
0.0875622
0.0853333
0.0818073
0.0779144
0.0743407
0.0714213
0.0692542
0.0678498
0.0672039
0.0670907
0.0677014
0.0690457
0.0710903
0.073824
0.0772527
0.0813679
0.0861457
0.0915515
0.0975401
0.104062
0.111073
0.118551
0.1265
0.134974
0.14408
0.15395
0.164773
0.176772
0.19018
0.205183
0.221869
0.240214
0.260105
0.281408
0.303945
0.327541
0.352029
0.377304
0.403288
0.429939
0.457257
0.485264
0.51401
0.543569
0.574033
0.605515
0.638153
0.672096
0.707509
0.744566
0.783464
0.824268
0.867011
0.911869
0.958977
1.00842
1.06026
1.11452
1.17122
1.23034
1.29183
1.35562
1.42157
1.48953
1.55928
1.63061
1.70325
1.77699
1.8516
1.92676
2.00214
2.07752
2.1528
2.22798
2.30309
2.37817
2.45318
2.52794
2.60231
2.67614
2.7493
2.82164
2.893
2.96336
3.03273
3.10114
3.16857
3.23496
3.30025
3.3644
3.42736
3.4891
3.54957
3.60875
3.6666
3.72307
3.77811
3.83167
3.88368
3.9341
3.98287
4.02996
4.07532
4.1189
4.16066
4.20055
4.23852
4.27452
4.30853
4.34056
4.3706
4.39867
4.42477
4.44893
4.47113
4.4914
4.50973
4.52614
4.54063
4.55322
4.5639
4.5727
4.57962
4.5847
4.58795
4.5894
4.5891
4.5871
4.58319
4.57755
4.5702
4.56118
4.55053
4.53829
4.5245
4.50919
4.49242
4.47424
4.45468
4.43381
4.41169
4.38833
4.3639
4.33846
4.31207
4.28476
4.25657
4.22748
4.19749
4.16664
4.13496
4.10249
4.06929
4.03533
4.0008
3.96581
3.93042
3.89469
3.85861
3.82216
3.78539
3.7483
3.71094
3.67346
3.63597
3.59856
3.56129
3.52422
3.4874
3.45086
3.41463
3.37881
3.34314
3.30778
3.27081
0.0110379
0.0538351
0.0810222
0.0915199
0.0947769
0.0945819
0.0918749
0.0881739
0.0845915
0.0816681
0.0795629
0.0783459
0.0778657
0.0778473
0.0785095
0.0798637
0.0818651
0.0844825
0.0876914
0.0914737
0.0958108
0.100687
0.106095
0.112042
0.118555
0.125689
0.133529
0.142169
0.151713
0.162286
0.174025
0.187061
0.201458
0.217255
0.234451
0.252989
0.272749
0.293624
0.315524
0.338342
0.361956
0.386301
0.411372
0.437174
0.463739
0.491113
0.519359
0.548556
0.578798
0.610191
0.642854
0.676924
0.71255
0.749899
0.789136
0.830406
0.8738
0.919453
0.967495
1.01802
1.07107
1.12668
1.18487
1.24564
1.30896
1.37477
1.44298
1.51346
1.58603
1.66045
1.73638
1.81343
1.89127
1.96971
2.04848
2.12733
2.20599
2.2844
2.36257
2.44061
2.51858
2.59636
2.67386
2.751
2.82753
2.90329
2.97815
3.05203
3.12483
3.19649
3.26698
3.3363
3.40438
3.47116
3.53659
3.60066
3.66332
3.72456
3.78436
3.8427
3.89952
3.95478
4.00843
4.06041
4.11068
4.15918
4.2059
4.25079
4.29382
4.33494
4.3741
4.41125
4.44635
4.47938
4.51035
4.53927
4.56614
4.591
4.61384
4.63468
4.65353
4.6704
4.6853
4.69825
4.70925
4.71831
4.72546
4.7307