/*--------------------------------*- C++ -*----------------------------------*\
| =========                 |                                                 |
| \\      /  F ield         | OpenFOAM: The Open Source CFD Toolbox           |
|  \\    /   O peration     | Version:  4.x                                   |
|   \\  /    A nd           | Web:      www.OpenFOAM.org                      |
|    \\/     M anipulation  |                                                 |
\*---------------------------------------------------------------------------*/
FoamFile
{
    version     2.0;
    format      ascii;
    class       volScalarField;
    location    "400";
    object      nut;
}
// * * * * * * * * * * * * * * * * * * * * * * * * * * * * * * * * * * * * * //

dimensions      [0 2 -1 0 0 0 0];

internalField   nonuniform List<scalar> 
12225
(
5.3346e-06
8.14786e-06
1.00342e-05
1.11553e-05
1.16637e-05
1.18317e-05
1.18672e-05
1.17393e-05
1.15649e-05
1.13835e-05
1.12073e-05
1.10383e-05
1.08948e-05
1.07486e-05
1.06513e-05
1.05173e-05
1.04783e-05
1.03514e-05
0.000196741
5.95897e-05
4.24933e-05
3.63655e-05
3.35404e-05
3.24767e-05
3.21672e-05
3.26236e-05
3.32407e-05
3.30403e-05
3.26572e-05
3.28506e-05
3.27528e-05
3.31577e-05
3.32246e-05
3.3775e-05
3.39983e-05
3.47408e-05
0.000991695
0.000323382
0.000213431
0.00016115
0.000133446
0.000113965
0.000102348
9.26235e-05
8.6275e-05
7.92615e-05
7.4609e-05
6.95675e-05
6.63825e-05
6.27865e-05
6.06872e-05
5.80686e-05
5.67563e-05
5.49025e-05
0.000966188
0.000662275
0.000548252
0.000442469
0.000380557
0.000327878
0.0002959
0.000264894
0.000245869
0.000224103
0.000210757
0.000194814
0.00018546
0.000173435
0.000166813
0.000157558
0.000152929
0.000145561
0.00088866
0.000809215
0.000765565
0.000695195
0.000642207
0.00058439
0.000545356
0.000502853
0.000475432
0.000443749
0.000423694
0.000398951
0.000383976
0.000364126
0.000352901
0.000336673
0.000328414
0.000314799
0.000857594
0.000846055
0.000834194
0.000809237
0.000786789
0.00075368
0.000728257
0.000696196
0.000673189
0.000645182
0.000625919
0.000601845
0.000586077
0.000565205
0.000552467
0.00053416
0.000524189
0.000508034
0.000852813
0.000849796
0.000846709
0.000840719
0.000833941
0.000823569
0.000813236
0.000798097
0.000786133
0.000770099
0.000758077
0.000742334
0.000731093
0.000716033
0.000705897
0.000691632
0.000682838
0.000669494
0.000851885
0.000850128
0.000848836
0.000846453
0.000844069
0.000840056
0.000835768
0.000830403
0.000824716
0.000817154
0.000810781
0.000802211
0.000795591
0.000786595
0.000780053
0.000770861
0.000764697
0.00075547
0.000851673
0.000850298
0.00084933
0.000847998
0.000846774
0.000844962
0.000843089
0.000840692
0.000838263
0.000835278
0.000831969
0.000828349
0.000824655
0.000820328
0.000816439
0.000811587
0.000807635
0.00080232
0.000851608
0.00085046
0.000849535
0.000848533
0.000847646
0.000846553
0.000845528
0.000844292
0.000843109
0.000841685
0.000840315
0.000838621
0.000837099
0.000835147
0.000833487
0.000831149
0.000829447
0.000826792
0.000851574
0.000850566
0.000849668
0.000848777
0.000847984
0.000847116
0.000846338
0.000845481
0.000844717
0.000843836
0.000843065
0.000842138
0.000841349
0.000840357
0.000839541
0.000838461
0.000837603
0.000836444
0.000851556
0.000850622
0.000849753
0.000848914
0.000848149
0.000847369
0.000846655
0.000845927
0.000845267
0.000844579
0.000843958
0.0008433
0.00084271
0.00084207
0.0008415
0.000840869
0.000840308
0.000839675
0.000851548
0.000850653
0.000849802
0.000848992
0.000848237
0.0008475
0.000846804
0.000846128
0.000845493
0.000844872
0.000844288
0.000843713
0.000843175
0.000842641
0.000842141
0.000841643
0.000841175
0.000840702
0.000851544
0.000850668
0.000849829
0.000849035
0.000848285
0.000847566
0.000846881
0.000846224
0.0008456
0.000845001
0.00084443
0.000843881
0.000843359
0.000842855
0.000842376
0.000841913
0.000841471
0.000841042
0.00085154
0.000850672
0.000849842
0.000849055
0.000848309
0.000847596
0.000846917
0.000846268
0.000845649
0.000845058
0.000844493
0.000843953
0.000843437
0.000842942
0.000842469
0.000842015
0.000841582
0.000841164
0.000851537
0.000850674
0.000849848
0.000849065
0.00084832
0.00084761
0.000846933
0.000846287
0.000845671
0.000845082
0.00084452
0.000843981
0.000843468
0.000842975
0.000842505
0.000842054
0.000841623
0.000841208
0.000851538
0.000850676
0.000849855
0.000849072
0.000848328
0.000847618
0.000846941
0.000846296
0.00084568
0.000845092
0.00084453
0.000843992
0.000843479
0.000842988
0.000842518
0.000842068
0.000841637
0.000841225
0.000851538
0.000850676
0.000849854
0.000849071
0.000848326
0.000847615
0.000846938
0.000846292
0.000845674
0.000845085
0.000844522
0.000843984
0.000843469
0.000842976
0.000842505
0.000842054
0.000841623
0.00084121
0.000851537
0.000850672
0.000849849
0.000849065
0.000848318
0.000847606
0.000846927
0.00084628
0.000845661
0.000845071
0.000844506
0.000843967
0.000843451
0.000842957
0.000842485
0.000842033
0.000841601
0.000841187
0.000851537
0.000850674
0.000849849
0.000849066
0.000848319
0.000847607
0.000846928
0.000846279
0.00084566
0.000845068
0.000844502
0.000843961
0.000843443
0.000842946
0.000842472
0.000842017
0.000841582
0.000841164
0.000851538
0.000850673
0.000849843
0.000849057
0.000848309
0.000847595
0.000846911
0.000846258
0.000845633
0.000845035
0.000844461
0.000843912
0.000843384
0.000842878
0.000842391
0.000841924
0.000841473
0.00084104
0.00085154
0.000850671
0.000849824
0.000849036
0.000848274
0.000847553
0.000846847
0.00084618
0.000845521
0.000844892
0.000844266
0.00084367
0.000843074
0.000842509
0.00084194
0.000841398
0.000840844
0.000840321
0.000851519
0.00085067
0.00084977
0.000848966
0.000848135
0.00084735
0.000846515
0.000845716
0.000844847
0.00084397
0.000843025
0.000842093
0.000841111
0.000840179
0.000839158
0.000838198
0.000837115
0.000836149
0.000851405
0.000850802
0.000849641
0.000848565
0.00084714
0.000845673
0.000843931
0.000842233
0.000840173
0.000837894
0.000835304
0.000832636
0.000829944
0.000827121
0.000824226
0.000821219
0.000818233
0.000815507
0.000851348
0.000851742
0.000848958
0.000844768
0.000838922
0.000832598
0.000826595
0.000819567
0.000813255
0.000805677
0.000797107
0.000789354
0.000781081
0.000773827
0.000765882
0.000758967
0.000751129
0.000744576
0.00085544
0.00085122
0.000835465
0.000810168
0.000785573
0.000768723
0.000751604
0.000733242
0.000712751
0.00069443
0.000675527
0.000659684
0.000643502
0.000630173
0.000616093
0.000604609
0.000591987
0.000582027
0.000879677
0.000821555
0.000757503
0.000672776
0.000614808
0.000578782
0.000543104
0.000512811
0.000483223
0.000459515
0.000436813
0.000419297
0.000402055
0.000388919
0.000375292
0.000365029
0.000353787
0.000345549
0.000958699
0.000593873
0.000450933
0.00035881
0.000303708
0.000267989
0.000240535
0.00022058
0.000203699
0.000191242
0.000180125
0.000172057
0.000164401
0.000158964
0.000153404
0.000149558
0.000145307
0.000142427
0.000496435
0.000155598
0.000106161
8.59265e-05
7.45963e-05
6.75852e-05
6.29672e-05
5.99772e-05
5.79424e-05
5.66971e-05
5.59115e-05
5.5609e-05
5.55117e-05
5.57377e-05
5.6021e-05
5.58346e-05
5.52508e-05
5.46676e-05
6.25211e-06
8.1213e-06
9.65484e-06
1.08738e-05
1.17906e-05
1.24709e-05
1.29422e-05
1.32823e-05
1.35273e-05
1.36943e-05
1.37828e-05
1.38444e-05
1.38538e-05
1.38387e-05
1.3789e-05
1.37356e-05
1.36817e-05
1.36283e-05
3.71222e-10
1.35861e-08
3.49835e-08
6.77791e-08
1.07712e-07
1.52759e-07
2.23195e-07
3.4081e-07
5.16835e-07
7.50337e-07
1.00928e-06
1.27115e-06
1.51945e-06
1.73901e-06
1.92521e-06
2.07752e-06
2.19586e-06
2.27707e-06
2.33123e-06
2.3356e-06
2.32236e-06
2.29107e-06
2.21209e-06
2.07735e-06
1.87987e-06
1.61249e-06
1.27811e-06
8.96036e-07
5.16799e-07
2.21781e-07
6.41096e-08
1.77327e-08
1.39614e-08
1.52502e-08
1.76294e-08
2.11266e-08
2.54433e-08
2.90094e-08
3.26726e-08
4.55698e-08
1.13703e-07
2.56369e-07
5.00214e-07
7.17566e-07
8.68643e-07
8.79339e-07
8.45186e-07
7.66456e-07
6.67223e-07
5.82136e-07
5.44883e-07
6.0727e-07
8.19118e-07
8.72848e-07
1.0111e-06
1.27083e-06
2.0046e-06
5.57004e-06
1.11296e-05
1.62743e-05
2.06709e-05
2.43408e-05
2.58326e-05
2.70955e-05
2.82373e-05
2.9318e-05
3.03944e-05
3.13546e-05
3.22725e-05
3.31226e-05
3.39406e-05
3.47146e-05
3.54639e-05
3.61835e-05
3.68851e-05
3.75652e-05
3.82311e-05
3.88807e-05
3.95201e-05
4.01472e-05
4.07663e-05
4.13757e-05
4.19786e-05
4.25737e-05
4.3163e-05
4.37458e-05
4.43233e-05
4.48948e-05
4.54611e-05
4.60217e-05
4.65766e-05
4.71255e-05
4.76681e-05
4.82039e-05
4.87326e-05
4.92538e-05
4.97674e-05
5.02737e-05
5.07742e-05
5.12716e-05
5.17707e-05
5.22784e-05
5.27821e-05
5.32857e-05
5.37906e-05
5.42973e-05
5.48066e-05
5.53187e-05
5.58344e-05
5.63539e-05
5.6878e-05
5.74071e-05
5.79417e-05
5.84826e-05
5.90302e-05
5.95852e-05
6.01482e-05
6.072e-05
6.13012e-05
6.18926e-05
6.2495e-05
6.31093e-05
6.37363e-05
6.43771e-05
6.50329e-05
6.57051e-05
6.6405e-05
6.71273e-05
6.78612e-05
6.86239e-05
6.9411e-05
7.02213e-05
7.06466e-05
7.03852e-05
7.01101e-05
6.9818e-05
6.95111e-05
6.91833e-05
6.88377e-05
6.84791e-05
6.81039e-05
6.77154e-05
6.73124e-05
6.68965e-05
6.64678e-05
6.60271e-05
6.55748e-05
6.51115e-05
6.46375e-05
6.41529e-05
6.36576e-05
6.31519e-05
6.26399e-05
6.21078e-05
6.15798e-05
6.10258e-05
6.04822e-05
5.99104e-05
5.93557e-05
5.87713e-05
5.82043e-05
5.762e-05
5.70411e-05
5.64573e-05
5.58721e-05
5.52843e-05
5.46937e-05
5.40999e-05
5.35031e-05
5.29032e-05
5.23005e-05
5.16948e-05
5.10853e-05
5.047e-05
4.98449e-05
4.92012e-05
4.85336e-05
4.77978e-05
4.69489e-05
4.5193e-05
1.82107e-09
6.93271e-09
4.32809e-08
1.27153e-07
3.52931e-07
1.23773e-06
2.8542e-06
5.24772e-06
8.37834e-06
1.14722e-05
1.48897e-05
1.89118e-05
2.26166e-05
2.52347e-05
2.72274e-05
2.85716e-05
2.90734e-05
2.91266e-05
2.83096e-05
2.70697e-05
2.39576e-05
2.02229e-05
1.61992e-05
1.25755e-05
9.55429e-06
7.05262e-06
5.11414e-06
3.63181e-06
2.45062e-06
1.57439e-06
9.48679e-07
5.5661e-07
3.41368e-07
2.26998e-07
1.6712e-07
1.34715e-07
1.3293e-07
2.3425e-07
4.78204e-07
9.60456e-07
4.36918e-06
9.29052e-06
1.66073e-05
2.17063e-05
2.41808e-05
2.32751e-05
2.15327e-05
1.78759e-05
1.34044e-05
1.15717e-05
1.13707e-05
1.23058e-05
1.21294e-05
1.20894e-05
1.41902e-05
1.85016e-05
2.48198e-05
3.40805e-05
4.36051e-05
5.39432e-05
6.60274e-05
7.90105e-05
9.34216e-05
0.000108361
0.000124074
0.000139842
0.000155677
0.000171095
0.000186059
0.000200338
0.000213931
0.000226785
0.000238889
0.00025043
0.000261241
0.00027169
0.000281744
0.000291292
0.000300495
0.000309384
0.000318013
0.0003264
0.000334583
0.000342575
0.000350401
0.000358071
0.0003656
0.000372999
0.000380275
0.000387435
0.000394484
0.000401424
0.000408254
0.000414968
0.000421558
0.000428004
0.000434279
0.000440341
0.000446127
0.000451547
0.000456476
0.000460757
0.000464982
0.000469048
0.000473008
0.000476838
0.000480546
0.000484127
0.000487581
0.000490905
0.000494098
0.000497159
0.000500088
0.000502884
0.000505546
0.000508073
0.000510465
0.000512721
0.000514839
0.000516819
0.000518659
0.000520358
0.000521914
0.000523327
0.000524595
0.000525715
0.000526686
0.000527519
0.000528231
0.000528816
0.000529305
0.000529741
0.000530201
0.000530649
0.000530841
0.000531058
0.000531131
0.000531072
0.00053082
0.000530469
0.000529998
0.000529416
0.000528726
0.000527932
0.000527039
0.000526052
0.000524974
0.000523811
0.000522564
0.000521234
0.000519815
0.000518361
0.000516689
0.000515204
0.000513266
0.000511688
0.000509563
0.000507873
0.000505642
0.00050372
0.000501475
0.000499365
0.000497189
0.000495006
0.000492809
0.000490596
0.000488363
0.000486106
0.000483822
0.000481513
0.000479179
0.000476816
0.000474415
0.000471957
0.00046941
0.000466667
0.000463626
0.000459903
0.000454737
0.000439488
2.17338e-09
5.34013e-09
5.80823e-08
3.18104e-07
9.47485e-07
2.66614e-06
5.88166e-06
1.03377e-05
1.5997e-05
2.25943e-05
2.99208e-05
3.69692e-05
4.38746e-05
5.01874e-05
5.62908e-05
6.11702e-05
6.44567e-05
6.67419e-05
6.75329e-05
6.74196e-05
6.49512e-05
6.15984e-05
5.61703e-05
4.93073e-05
4.12988e-05
3.32763e-05
2.55636e-05
1.89261e-05
1.35814e-05
9.48184e-06
6.46727e-06
4.15889e-06
2.66174e-06
1.75401e-06
1.23394e-06
9.7789e-07
8.72733e-07
1.09847e-06
2.20404e-06
4.5706e-06
1.57977e-05
3.26248e-05
4.79065e-05
5.74183e-05
6.12721e-05
5.96305e-05
5.10963e-05
3.71682e-05
2.78474e-05
2.63315e-05
2.90209e-05
3.37678e-05
3.95399e-05
4.94092e-05
6.42657e-05
7.99608e-05
9.85552e-05
0.00011993
0.000146104
0.000176235
0.000210255
0.000246066
0.000283771
0.000321249
0.000358476
0.0003941
0.000428151
0.000460115
0.000490138
0.000518192
0.000544502
0.000569199
0.00059233
0.000614493
0.000635742
0.000655915
0.00067537
0.000694085
0.000712243
0.000729873
0.000747055
0.000763825
0.000780229
0.000796295
0.000812052
0.000827517
0.00084271
0.00085764
0.000872318
0.000886746
0.000900927
0.000914855
0.000928521
0.000941909
0.000954996
0.000967753
0.000980144
0.000992124
0.00100365
0.00101468
0.00102521
0.00103536
0.00104531
0.00105498
0.0010644
0.00107354
0.0010824
0.00109099
0.00109928
0.00110729
0.00111501
0.00112244
0.00112957
0.00113641
0.00114295
0.00114919
0.00115514
0.00116079
0.00116614
0.00117119
0.00117594
0.00118038
0.00118451
0.00118833
0.00119184
0.00119504
0.00119793
0.00120053
0.00120285
0.00120488
0.00120666
0.00120822
0.00120958
0.00121064
0.00121121
0.00121161
0.00121174
0.00121151
0.00121103
0.00121026
0.00120923
0.00120794
0.0012064
0.00120462
0.00120262
0.0012004
0.00119797
0.00119535
0.00119255
0.00118957
0.00118641
0.00118308
0.00117948
0.00117588
0.0011718
0.00116788
0.00116338
0.00115915
0.00115432
0.00114973
0.00114475
0.00113987
0.00113488
0.00112987
0.00112482
0.00111973
0.00111459
0.0011094
0.00110415
0.00109883
0.00109346
0.00108804
0.00108253
0.00107689
0.00107106
0.00106483
0.00105795
0.00104964
0.00103789
0.00101069
2.1635e-09
1.17746e-08
1.65991e-07
7.78878e-07
2.23301e-06
6.04166e-06
1.23951e-05
2.10494e-05
3.18655e-05
4.40574e-05
5.64836e-05
6.87504e-05
7.99935e-05
8.96056e-05
9.69054e-05
0.000102466
0.000106212
0.000108097
0.000108447
0.000107472
0.000105237
0.000101465
9.62059e-05
9.00194e-05
8.17963e-05
7.20166e-05
6.10623e-05
4.96146e-05
3.88577e-05
2.95637e-05
2.19808e-05
1.61086e-05
1.15152e-05
8.26064e-06
5.9068e-06
4.53792e-06
3.80471e-06
3.77299e-06
9.41285e-06
1.88741e-05
4.24671e-05
6.13598e-05
7.27184e-05
7.68911e-05
7.3694e-05
5.79924e-05
5.10739e-05
5.29697e-05
5.65979e-05
6.15359e-05
7.08512e-05
8.5352e-05
0.000103281
0.000123083
0.000151755
0.000181963
0.000222696
0.000266555
0.000315957
0.00036835
0.000423038
0.000477883
0.000532413
0.000585068
0.000635737
0.000683711
0.000729098
0.000771822
0.000812072
0.000849967
0.000885712
0.000919978
0.000952539
0.000983718
0.0010137
0.00104256
0.0010705
0.00109759
0.00112396
0.00114966
0.00117476
0.0011993
0.00122334
0.00124689
0.00127
0.00129268
0.00131495
0.00133681
0.00135829
0.00137937
0.00140007
0.00142036
0.00144025
0.00145972
0.00147875
0.00149731
0.0015154
0.00153298
0.00155005
0.00156661
0.00158269
0.00159838
0.0016137
0.00162861
0.00164312
0.00165721
0.00167087
0.0016841
0.00169688
0.00170923
0.00172112
0.00173257
0.00174357
0.00175413
0.00176424
0.0017739
0.00178311
0.00179188
0.00180021
0.00180808
0.00181551
0.00182249
0.00182901
0.00183507
0.00184068
0.00184584
0.00185055
0.00185481
0.00185864
0.00186205
0.00186502
0.00186759
0.00186972
0.00187131
0.00187234
0.00187309
0.00187333
0.00187313
0.00187251
0.00187147
0.00187002
0.00186818
0.00186597
0.00186341
0.0018605
0.00185728
0.00185377
0.00184997
0.0018459
0.00184156
0.00183696
0.00183208
0.0018269
0.00182149
0.00181564
0.00180967
0.00180321
0.00179672
0.00178975
0.00178279
0.00177552
0.00176822
0.00176082
0.00175335
0.00174581
0.0017382
0.00173051
0.00172272
0.00171484
0.00170687
0.00169882
0.00169068
0.00168244
0.00167403
0.00166535
0.00165616
0.00164611
0.00163418
0.0016176
0.00158565
2.91485e-09
3.76073e-08
3.87318e-07
1.61806e-06
5.63563e-06
1.4164e-05
2.70357e-05
4.35997e-05
6.20676e-05
8.04368e-05
9.72937e-05
0.000111556
0.000122439
0.000130886
0.000136841
0.000140496
0.000142421
0.000142882
0.000142082
0.000140166
0.000137258
0.000133042
0.000127882
0.000121971
0.000114418
0.000105361
9.47388e-05
8.26551e-05
6.95814e-05
5.66615e-05
4.5085e-05
3.52691e-05
2.73238e-05
2.09686e-05
1.69943e-05
1.34874e-05
1.31231e-05
1.65789e-05
3.20381e-05
5.74326e-05
8.28397e-05
9.83745e-05
9.44248e-05
8.70267e-05
8.28288e-05
8.23919e-05
8.52467e-05
9.16594e-05
0.000103174
0.00012069
0.000134948
0.000161201
0.000194558
0.00023418
0.000283755
0.000336544
0.000397065
0.000458854
0.000524512
0.00059067
0.000657006
0.000722063
0.000785412
0.00084631
0.000904656
0.000960265
0.00101292
0.00106297
0.0011109
0.00115652
0.00120002
0.00124177
0.00128185
0.00132048
0.0013578
0.00139394
0.00142903
0.00146317
0.00149644
0.00152891
0.00156063
0.00159167
0.00162205
0.00165182
0.001681
0.00170961
0.00173768
0.00176521
0.00179221
0.0018187
0.00184467
0.00187013
0.00189505
0.00191945
0.00194331
0.00196661
0.00198936
0.00201155
0.00203319
0.0020543
0.00207488
0.00209496
0.00211454
0.00213358
0.0021521
0.00217006
0.00218747
0.00220431
0.00222058
0.00223627
0.00225138
0.00226592
0.00227988
0.00229327
0.00230609
0.00231835
0.00233006
0.0023412
0.00235179
0.00236183
0.0023713
0.00238022
0.00238859
0.00239639
0.00240364
0.00241033
0.00241646
0.00242205
0.00242708
0.00243159
0.00243552
0.00243893
0.00244173
0.00244381
0.00244532
0.00244639
0.00244686
0.00244678
0.00244616
0.00244502
0.00244339
0.00244127
0.0024387
0.00243569
0.00243227
0.00242848
0.00242433
0.00241985
0.00241503
0.0024099
0.00240445
0.00239864
0.00239246
0.00238593
0.00237895
0.00237164
0.00236389
0.00235588
0.00234748
0.00233891
0.00233008
0.00232114
0.00231207
0.00230291
0.00229364
0.00228426
0.00227475
0.00226512
0.00225535
0.00224546
0.00223547
0.00222539
0.00221519
0.0022048
0.00219411
0.00218287
0.00217072
0.00215664
0.00213757
0.00210554
2.5142e-09
8.75253e-08
8.70622e-07
4.18902e-06
1.44395e-05
3.20481e-05
5.46268e-05
7.93855e-05
0.000102631
0.000121871
0.000136716
0.000148004
0.000156167
0.000161615
0.000165086
0.000166957
0.000167518
0.000166987
0.000165498
0.00016313
0.000159903
0.0001556
0.000150556
0.000144779
0.000137622
0.00012915
0.000119226
0.000107802
9.49983e-05
8.03739e-05
6.53034e-05
5.19853e-05
4.15417e-05
3.35131e-05
2.84454e-05
2.73841e-05
3.23944e-05
5.06305e-05
7.95643e-05
9.97316e-05
0.000109161
0.000111434
0.000110587
0.000110487
0.000113691
0.000121881
0.000136337
0.000145489
0.000162802
0.000191731
0.00022741
0.000272713
0.000326436
0.000385053
0.000451101
0.000518963
0.000591058
0.000663478
0.000737256
0.000810271
0.00088224
0.000952382
0.00102043
0.00108594
0.00114869
0.00120918
0.00126736
0.00132293
0.00137633
0.00142759
0.00147691
0.00152446
0.00157038
0.00161482
0.00165792
0.00169977
0.00174049
0.00178015
0.00181884
0.0018566
0.00189349
0.00192956
0.00196485
0.00199938
0.0020332
0.00206632
0.00209876
0.00213056
0.00216171
0.00219224
0.00222215
0.00225144
0.00228012
0.00230818
0.00233563
0.00236246
0.00238867
0.00241427
0.00243926
0.00246365
0.00248744
0.00251063
0.0025332
0.00255515
0.00257646
0.00259712
0.00261712
0.00263645
0.0026551
0.00267306
0.00269034
0.00270694
0.00272287
0.00273814
0.00275276
0.00276674
0.00278008
0.00279279
0.00280488
0.00281636
0.00282721
0.00283744
0.00284706
0.00285605
0.00286443
0.0028722
0.00287934
0.00288587
0.0028918
0.00289715
0.00290182
0.00290585
0.0029092
0.00291173
0.00291371
0.0029151
0.00291585
0.00291597
0.00291549
0.00291443
0.00291281
0.00291065
0.00290799
0.00290484
0.00290125
0.00289726
0.0028929
0.00288819
0.00288313
0.00287773
0.00287198
0.00286584
0.00285929
0.00285228
0.0028448
0.00283686
0.00282846
0.00281968
0.00281052
0.0028011
0.00279144
0.00278161
0.00277165
0.00276155
0.00275132
0.00274093
0.00273037
0.00271964
0.00270874
0.00269769
0.00268653
0.00267528
0.00266391
0.00265238
0.00264056
0.00262825
0.00261508
0.00260014
0.00258088
0.00255064
4.53723e-09
2.188e-07
2.268e-06
1.16604e-05
3.25344e-05
6.1249e-05
9.15065e-05
0.000117187
0.000137466
0.000152663
0.000164179
0.000171906
0.000177079
0.000180337
0.000182171
0.000182911
0.000182755
0.000181807
0.000180077
0.000177615
0.000174361
0.000170153
0.000165312
0.000159566
0.000152607
0.000139183
0.000123893
0.0001094
9.53092e-05
8.119e-05
6.69632e-05
5.35895e-05
4.26411e-05
3.77165e-05
3.94536e-05
5.34164e-05
7.9434e-05
0.000104853
0.000122456
0.00013213
0.000135703
0.000137381
0.000141389
0.000150786
0.000159735
0.000167627
0.000185739
0.000214733
0.000251562
0.000297691
0.00035243
0.00041423
0.000481824
0.000553117
0.000628122
0.000704156
0.000781833
0.000859272
0.000936488
0.00101246
0.00108693
0.00115924
0.00122926
0.00129758
0.00136354
0.00142717
0.00148858
0.00154779
0.00160496
0.00166018
0.00171358
0.0017653
0.00181543
0.0018641
0.0019114
0.00195743
0.00200225
0.00204595
0.00208858
0.00213018
0.00217081
0.0022105
0.00224929
0.00228721
0.00232429
0.00236056
0.00239604
0.00243077
0.00246476
0.00249805
0.00253063
0.00256253
0.00259376
0.0026243
0.00265418
0.00268339
0.00271192
0.00273978
0.00276696
0.00279345
0.00281926
0.00284439
0.00286884
0.00289259
0.00291562
0.00293793
0.00295951
0.00298035
0.00300045
0.00301981
0.00303842
0.00305628
0.00307341
0.00308982
0.00310552
0.00312054
0.00313488
0.00314855
0.00316157
0.00317393
0.00318565
0.00319673
0.00320715
0.00321693
0.00322607
0.00323457
0.00324241
0.00324961
0.00325622
0.00326216
0.0032674
0.00327194
0.00327574
0.00327869
0.00328109
0.0032828
0.00328382
0.00328418
0.0032839
0.003283
0.0032815
0.00327943
0.00327683
0.00327372
0.00327015
0.00326617
0.00326182
0.00325715
0.0032522
0.00324697
0.00324139
0.00323541
0.00322898
0.00322205
0.00321458
0.00320659
0.00319808
0.00318913
0.00317977
0.00317011
0.00316021
0.00315013
0.0031399
0.00312953
0.00311898
0.00310823
0.00309726
0.00308606
0.00307467
0.00306311
0.00305144
0.00303967
0.00302781
0.00301581
0.00300356
0.0029909
0.00297751
0.00296258
0.00294421
0.00291686
4.51742e-08
6.18197e-07
5.95885e-06
2.68337e-05
6.03449e-05
9.62685e-05
0.000126759
0.000150291
0.000167206
0.000178994
0.000186004
0.000189962
0.00019186
0.000192494
0.00019236
0.000191735
0.000190738
0.000189379
0.000187576
0.000185063
0.000181677
0.000177342
0.000172165
0.000165026
0.000148302
0.000133033
0.000119019
0.000105779
9.33513e-05
8.15902e-05
7.12526e-05
6.48224e-05
6.60324e-05
7.43765e-05
8.4992e-05
0.000111462
0.000140594
0.000155566
0.000162882
0.000167275
0.000171622
0.000180789
0.000181785
0.00018748
0.000205245
0.000232163
0.000267821
0.000312495
0.000365698
0.000427976
0.000494491
0.0005666
0.000641999
0.000719491
0.000798574
0.000878056
0.000957764
0.00103682
0.00111494
0.00119144
0.00126599
0.00133926
0.00141057
0.00147985
0.00154706
0.00161223
0.0016754
0.00173664
0.00179601
0.00185361
0.00190953
0.00196385
0.00201666
0.00206804
0.00211808
0.00216683
0.00221435
0.0022607
0.00230591
0.00235004
0.00239311
0.00243515
0.00247619
0.00251626
0.00255539
0.00259362
0.00263095
0.00266745
0.00270314
0.00273806
0.00277224
0.00280568
0.00283841
0.00287044
0.00290176
0.00293238
0.0029623
0.00299152
0.00302
0.00304777
0.00307484
0.0031012
0.00312683
0.00315174
0.0031759
0.0031993
0.00322192
0.00324376
0.0032648
0.00328503
0.00330446
0.00332309
0.00334092
0.00335799
0.00337432
0.00338993
0.00340485
0.00341909
0.00343267
0.00344559
0.00345787
0.00346949
0.00348047
0.0034908
0.00350049
0.00350954
0.00351794
0.00352571
0.00353291
0.00353937
0.00354515
0.00355022
0.00355451
0.00355796
0.00356083
0.00356297
0.0035644
0.00356515
0.00356524
0.00356469
0.00356352
0.00356178
0.00355948
0.00355666
0.00355339
0.00354971
0.0035457
0.00354139
0.0035368
0.00353193
0.00352673
0.00352113
0.00351506
0.00350845
0.00350125
0.00349346
0.00348511
0.00347625
0.00346697
0.00345736
0.00344751
0.00343749
0.00342732
0.00341699
0.00340645
0.00339566
0.00338461
0.00337329
0.00336173
0.00334999
0.00333814
0.0033262
0.00331419
0.00330207
0.00328974
0.00327707
0.00326381
0.00324921
0.00323213
0.00320796
1.79174e-07
1.54278e-06
1.43463e-05
4.78753e-05
8.91477e-05
0.000125255
0.00015296
0.000173048
0.000186293
0.0001938
0.000197766
0.000199214
0.000199081
0.000198096
0.000196731
0.000195219
0.000193574
0.000191652
0.000189191
0.000186135
0.000182361
0.000177694
0.00016979
0.000153594
0.000138922
0.000125348
0.000112056
9.9856e-05
8.9371e-05
8.31384e-05
8.31331e-05
8.49434e-05
9.46828e-05
0.000115711
0.000142653
0.000166903
0.000186305
0.000198706
0.000203394
0.000202895
0.000202713
0.000206473
0.000221847
0.000246135
0.000279309
0.00032124
0.000371857
0.000431054
0.000494851
0.000565049
0.000638693
0.000715663
0.000794327
0.000873985
0.00095413
0.00103413
0.00111364
0.00119221
0.00126903
0.00134472
0.00141907
0.00149162
0.00156237
0.00163129
0.00169837
0.00176365
0.00182716
0.00188894
0.00194906
0.00200756
0.00206452
0.00212001
0.00217409
0.00222682
0.00227825
0.00232843
0.00237738
0.00242515
0.00247177
0.00251728
0.00256168
0.002605
0.00264725
0.00268846
0.00272866
0.00276788
0.0028062
0.00284361
0.00288014
0.00291583
0.00295074
0.00298489
0.00301829
0.00305097
0.00308293
0.00311417
0.0031447
0.00317452
0.00320365
0.00323208
0.0032598
0.0032868
0.00331306
0.00333858
0.00336334
0.00338732
0.00341051
0.00343288
0.00345444
0.00347515
0.00349502
0.00351404
0.00353224
0.00354962
0.00356625
0.00358214
0.00359734
0.00361187
0.00362575
0.00363899
0.0036516
0.00366358
0.00367494
0.00368567
0.00369578
0.00370526
0.00371412
0.00372241
0.00373009
0.00373707
0.00374338
0.003749
0.00375382
0.00375786
0.00376124
0.00376388
0.00376581
0.00376704
0.00376761
0.00376753
0.00376684
0.00376557
0.00376373
0.00376138
0.00375857
0.00375539
0.0037519
0.00374819
0.00374426
0.0037401
0.00373565
0.00373083
0.00372553
0.00371965
0.00371312
0.00370595
0.00369816
0.00368982
0.00368103
0.00367191
0.00366258
0.00365309
0.00364346
0.00363367
0.00362364
0.00361331
0.00360266
0.00359168
0.00358044
0.00356901
0.00355747
0.00354587
0.00353421
0.00352245
0.00351052
0.00349829
0.00348562
0.00347168
0.00345583
0.00343417
3.95029e-07
3.418e-06
2.71293e-05
7.23461e-05
0.0001178
0.000153554
0.000178177
0.000193227
0.000201967
0.000205759
0.000205949
0.000204107
0.000201327
0.000198303
0.000195401
0.00019272
0.000190138
0.000187433
0.000184301
0.000180674
0.000176338
0.000171205
0.000157751
0.000144937
0.000134262
0.000125756
0.000120727
0.000119364
0.000111481
0.000107504
0.00011187
0.000126918
0.000146848
0.000168156
0.000187965
0.000203458
0.000213556
0.00021757
0.000219353
0.000223687
0.000236573
0.000257855
0.000287696
0.000326368
0.000373444
0.000428808
0.000488597
0.000554441
0.000624413
0.000698544
0.000775066
0.000853318
0.000932336
0.00101161
0.00109073
0.00116931
0.00124663
0.00132273
0.00139806
0.00147174
0.0015439
0.00161441
0.00168324
0.00175042
0.00181598
0.00187997
0.00194242
0.00200338
0.00206288
0.0021209
0.00217757
0.00223292
0.00228701
0.00233986
0.00239153
0.00244211
0.00249173
0.00254028
0.00258767
0.0026339
0.00267898
0.00272291
0.00276571
0.00280737
0.0028479
0.00288733
0.00292564
0.00296294
0.00299932
0.00303488
0.00306969
0.00310379
0.00313719
0.00316992
0.00320197
0.00323335
0.00326407
0.00329411
0.00332349
0.00335218
0.00338019
0.00340749
0.00343407
0.00345991
0.003485
0.00350932
0.00353284
0.00355556
0.00357745
0.00359848
0.00361864
0.00363793
0.00365634
0.00367391
0.00369068
0.00370672
0.00372208
0.0037368
0.00375088
0.00376436
0.00377724
0.00378953
0.00380122
0.00381232
0.00382283
0.00383274
0.00384208
0.0038509
0.00385907
0.00386663
0.00387354
0.00387978
0.00388523
0.00388994
0.00389393
0.00389717
0.00389969
0.00390153
0.0039027
0.00390323
0.00390315
0.00390248
0.00390126
0.00389952
0.00389733
0.00389478
0.00389198
0.00388904
0.00388597
0.00388274
0.00387927
0.00387547
0.00387117
0.00386625
0.00386063
0.0038543
0.00384729
0.00383969
0.00383162
0.00382325
0.00381469
0.00380601
0.00379723
0.00378828
0.00377905
0.00376947
0.00375949
0.00374914
0.00373849
0.00372766
0.00371673
0.00370576
0.00369476
0.00368365
0.00367238
0.00366083
0.00364897
0.00363574
0.0036214
0.00360211
6.148e-07
6.70873e-06
4.28137e-05
9.48385e-05
0.000140764
0.00017428
0.000196157
0.000207935
0.00021224
0.000211775
0.000208535
0.000203903
0.000198812
0.000193826
0.000189178
0.000184909
0.000180703
0.000176319
0.000171809
0.000166734
0.000161026
0.000154276
0.000146276
0.000137514
0.000128929
0.000121852
0.000118107
0.000119549
0.000126967
0.000139722
0.000155925
0.000172938
0.0001899
0.00020517
0.000217383
0.000225235
0.000230301
0.00023722
0.000248742
0.000267744
0.000294126
0.000328929
0.000371668
0.000422086
0.000479756
0.000540522
0.000605398
0.000674531
0.000746868
0.000821782
0.000898133
0.000975231
0.00105245
0.00112941
0.00120553
0.00128036
0.00135464
0.00142748
0.001499
0.00156902
0.00163754
0.00170454
0.00176995
0.00183387
0.00189642
0.00195767
0.00201769
0.00207655
0.00213439
0.00219148
0.00224747
0.00230228
0.00235591
0.00240835
0.00245963
0.00250978
0.00255876
0.00260665
0.00265346
0.00269919
0.00274387
0.00278748
0.00283
0.00287139
0.00291166
0.00295079
0.00298882
0.0030258
0.00306182
0.00309702
0.00313151
0.00316536
0.00319859
0.0032312
0.00326319
0.00329455
0.00332528
0.00335539
0.00338486
0.00341369
0.00344187
0.00346937
0.00349618
0.00352228
0.00354766
0.00357229
0.00359615
0.00361922
0.00364147
0.00366286
0.00368337
0.00370297
0.00372164
0.00373942
0.00375636
0.00377258
0.00378813
0.00380306
0.0038174
0.00383117
0.00384438
0.00385703
0.00386913
0.00388067
0.00389166
0.0039021
0.00391203
0.0039214
0.00393022
0.00393846
0.00394609
0.00395307
0.0039593
0.00396478
0.0039695
0.00397346
0.0039767
0.00397926
0.00398117
0.00398244
0.0039831
0.00398318
0.0039827
0.00398171
0.00398027
0.00397848
0.00397652
0.00397451
0.00397248
0.00397037
0.00396808
0.00396548
0.00396237
0.00395858
0.003954
0.00394865
0.00394258
0.00393586
0.00392868
0.00392123
0.00391365
0.00390601
0.0038983
0.00389042
0.00388222
0.00387358
0.00386447
0.00385492
0.00384506
0.00383503
0.00382494
0.00381483
0.0038047
0.00379444
0.003784
0.00377326
0.00376236
0.00374969
0.00373702
0.00371885
7.80689e-07
1.18288e-05
5.903e-05
0.000116928
0.000163171
0.000194111
0.000211283
0.00021845
0.000218942
0.00021527
0.000209279
0.000202259
0.000195041
0.000188118
0.000181423
0.00017509
0.000169287
0.000163512