/*--------------------------------*- C++ -*----------------------------------*\
| =========                 |                                                 |
| \\      /  F ield         | OpenFOAM: The Open Source CFD Toolbox           |
|  \\    /   O peration     | Version:  4.x                                   |
|   \\  /    A nd           | Web:      www.OpenFOAM.org                      |
|    \\/     M anipulation  |                                                 |
\*---------------------------------------------------------------------------*/
FoamFile
{
    version     2.0;
    format      ascii;
    class       volScalarField;
    location    "400";
    object      omega;
}
// * * * * * * * * * * * * * * * * * * * * * * * * * * * * * * * * * * * * * //

dimensions      [0 0 -1 0 0 0 0];

internalField   nonuniform List<scalar> 
12225
(
38713.1
41494.7
43128.4
43944.2
44184.2
44131.2
43974.1
43697.1
43399.3
43112.2
42844.6
42597.1
42382.6
42178.1
42023.6
41851.2
41765
41610
1938.31
6545.62
9481.63
11499
12877.2
13791.4
14407.5
14813.5
15077.4
15314.1
15537.3
15781.8
15998.4
16221.8
16398
16572.8
16668.4
16765.7
377.803
1156.1
1745.83
2292.49
2738.13
3159.57
3468.33
3776.98
4006.24
4318.71
4549.34
4847.94
5052.01
5320.67
5486.23
5722.26
5842.18
6040.08
387.343
561.486
675.057
830.389
958.645
1101.57
1209.09
1334.68
1422.62
1541.5
1621.38
1732.65
1800.98
1902.86
1958.23
2049.88
2091.26
2174.77
420.935
459.225
482.95
528.53
568.89
620.724
660.772
710.943
746.494
793.089
824.379
867.91
894.839
935.411
957.868
995.417
1013.07
1048.13
436.044
439.213
443.09
454.142
464.677
482.277
496.419
516.164
530.809
550.449
564.159
583.087
595.351
613.489
624.095
641.487
650.145
666.763
438.415
437.276
436.452
437.131
438.442
441.651
445.078
451.221
455.889
463.063
468.189
475.778
480.86
488.603
493.383
501.167
505.421
513.107
438.862
437.097
435.303
434.134
433.133
433.011
433.167
433.908
434.937
436.99
438.537
441.311
443.154
446.353
448.318
451.829
453.755
457.5
438.954
437.001
435.013
433.309
431.697
430.467
429.389
428.639
428.005
427.703
427.653
427.801
428.07
428.692
429.172
430.17
430.794
432.142
438.978
436.909
434.879
433.005
431.205
429.611
428.098
426.777
425.527
424.469
423.469
422.69
421.898
421.366
420.757
420.52
420.032
420.045
438.99
436.847
434.791
432.855
430.994
429.281
427.634
426.121
424.659
423.338
422.047
420.906
419.77
418.796
417.8
416.984
416.119
415.445
438.995
436.811
434.733
432.765
430.881
429.117
427.429
425.845
424.323
422.902
421.533
420.259
419.026
417.886
416.777
415.758
414.762
413.855
438.998
436.791
434.697
432.709
430.814
429.023
427.318
425.703
424.161
422.701
421.306
419.985
418.721
417.525
416.378
415.294
414.253
413.272
438.998
436.779
434.675
432.676
430.773
428.968
427.252
425.622
424.069
422.592
421.184
419.845
418.567
417.351
416.189
415.083
414.025
413.019
439
436.774
434.663
432.657
430.749
428.937
427.213
425.575
424.014
422.529
421.114
419.766
418.48
417.255
416.085
414.969
413.903
412.887
439.001
436.771
434.656
432.645
430.735
428.918
427.19
425.546
423.981
422.491
421.071
419.718
418.428
417.197
416.023
414.903
413.832
412.811
439
436.769
434.651
432.638
430.725
428.906
427.176
425.53
423.962
422.469
421.046
419.69
418.396
417.163
415.985
414.862
413.789
412.765
439
436.769
434.65
432.637
430.724
428.905
427.174
425.526
423.958
422.463
421.039
419.682
418.388
417.153
415.975
414.85
413.776
412.75
439.001
436.771
434.654
432.641
430.729
428.91
427.179
425.532
423.964
422.47
421.046
419.689
418.394
417.159
415.981
414.856
413.782
412.757
439.001
436.771
434.655
432.644
430.732
428.914
427.184
425.538
423.97
422.477
421.054
419.698
418.405
417.172
415.994
414.872
413.799
412.775
439
436.773
434.661
432.652
430.743
428.927
427.201
425.558
423.995
422.506
421.088
419.736
418.449
417.221
416.05
414.933
413.869
412.853
439
436.777
434.676
432.67
430.769
428.959
427.246
425.613
424.067
422.595
421.203
419.875
418.619
417.419
416.288
415.205
414.187
413.212
439.011
436.782
434.711
432.717
430.852
429.077
427.43
425.863
424.42
423.065
421.825
420.654
419.578
418.547
417.622
416.729
415.95
415.171
439.068
436.725
434.79
432.935
431.366
429.932
428.733
427.603
426.735
426.056
425.604
425.268
425.009
424.887
424.859
424.952
425.081
425.138
439.094
436.27
435.157
434.869
435.533
436.589
437.575
439.211
440.539
442.655
445.42
447.863
450.712
453.101
455.992
458.392
461.433
463.811
437.012
436.594
442.162
453.281
464.782
472.427
480.623
490.089
501.505
512.062
523.662
533.55
544.253
553.1
563.045
571.092
580.581
587.903
425.076
452.488
487.622
545.468
593.056
626.299
663.324
698.162
736.008
768.927
803.487
831.646
861.706
885.245
911.681
931.667
955.525
972.693
390.389
627.1
820.8
1024.96
1202.31
1353.35
1496.02
1618.62
1737.64
1835.51
1932.42
2007.16
2084.99
2141.18
2204.94
2247.97
2302.2
2336.61
759.179
2432.01
3590.24
4476.83
5203.67
5802.01
6290.98
6679.96
6998.44
7248.34
7455.72
7610.11
7749.46
7845.16
7948.07
8012.06
8104.42
8158.35
20943.8
22169.9
23093.4
23774.9
24249.4
24574.3
24775.1
24901
24974.9
25008.2
25003.6
24980.1
24941.1
24887.2
24818.7
24751.1
24685.6
24622.6
11463.3
2495.07
2497.96
2501.22
2504.72
2508.4
2512.91
2518.91
2526.77
2536.49
2547.07
2557.8
2568.16
2577.67
2586.16
2593.62
2600.02
2605.26
2609.65
2612.49
2614.87
2616.25
2616.73
2615.08
2611.46
2605.62
2597.66
2588.22
2578.94
2572.4
2570.27
2571.71
2574.52
2577.53
2580.6
2583.73
2586.92
2590.11
2593.27
2597.14
2601.99
2610.21
2621.33
2631.67
2639.92
2643.61
2645.81
2646.75
2646.92
2647.61
2649.88
2655.48
2666.03
2671.5
2679.69
2692.12
2720.65
2847.95
3054.34
3257.01
3439.48
3602.55
3749.24
3882.69
4005.67
4120.54
4229.9
4329.7
4423.49
4510.66
4593.27
4671.21
4745.73
4816.95
4885.6
4951.82
5016.05
5078.36
5139.13
5198.34
5256.28
5312.9
5368.4
5422.74
5476.04
5528.27
5579.51
5629.72
5678.94
5727.13
5774.28
5820.38
5865.38
5909.24
5951.92
5993.38
6033.58
6072.51
6110.19
6146.72
6182.28
6217.26
6251.16
6284.09
6316.05
6347.05
6377.08
6406.12
6434.17
6461.23
6487.29
6512.34
6536.39
6559.42
6581.44
6602.44
6622.41
6641.36
6659.27
6676.15
6691.99
6706.78
6720.51
6733.19
6744.81
6755.37
6765.29
6774.54
6782.28
6789.13
6795.02
6799.82
6803.29
6805.33
6806.84
6807.21
6806.91
6805.42
6802.81
6799.58
6795.37
6790.45
6784.73
6778.3
6771.15
6763.36
6754.93
6745.91
6736.3
6726.12
6715.37
6704.1
6692.13
6679.9
6666.71
6653.5
6639.29
6625.33
6610.42
6596.01
6580.73
6565.92
6550.78
6535.71
6520.58
6505.39
6490.12
6474.75
6459.28
6443.73
6428.12
6412.44
6396.63
6380.55
6363.96
6346.22
6327.01
6303.45
6272.96
6181.32
11463.5
1997.72
1057.18
901.676
790.93
648.181
659.369
681.239
678.905
661.847
637.325
612.191
588.138
567.804
549.057
533.064
522.357
514.96
516.811
521.423
559.475
618.306
706.108
810.586
926.371
1043.49
1156.29
1248.56
1319.89
1337.46
1317.12
1250.18
1117.98
947.905
790.435
692.329
633.619
542.1
492.288
456.767
442.645
445.476
454.888
471.865
489.33
509.073
530.076
572.998
646.368
714.643
801.403
946.453
1346.91
1764.01
2091.95
2266.57
2380.16
2445.97
2473.64
2474.8
2414.67
2347.82
2269.06
2198.62
2132.11
2075.88
2027.15
1987.32
1954.93
1929.57
1910.11
1895.71
1886
1879.05
1875.94
1873.87
1873.21
1874.59
1877.1
1880.5
1884.55
1889.14
1894.1
1899.37
1904.83
1910.43
1916.09
1921.77
1927.42
1932.99
1938.45
1943.78
1948.94
1953.94
1958.78
1963.49
1968.16
1972.9
1977.92
1983.53
1990.2
1998.56
2006.48
2014.3
2021.87
2029.24
2036.39
2043.33
2050.05
2056.56
2062.85
2068.93
2074.8
2080.45
2085.89
2091.11
2096.11
2100.9
2105.46
2109.82
2113.95
2117.87
2121.57
2125.06
2128.35
2131.45
2134.38
2137.09
2139.51
2141.72
2143.61
2145.07
2145.85
2146.01
2146.12
2145.9
2145.72
2145.31
2144.65
2143.83
2142.81
2141.63
2140.29
2138.78
2137.12
2135.32
2133.36
2131.26
2129.02
2126.64
2124.15
2121.33
2118.9
2115.26
2112.93
2108.77
2106.33
2101.83
2099.12
2094.92
2091.81
2088.03
2084.39
2080.67
2076.9
2073.1
2069.26
2065.39
2061.5
2057.6
2053.71
2049.84
2046
2042.23
2038.51
2034.99
2031.82
2029.36
2027.16
2040.23
11463.6
2046
825.113
627.896
667.354
732.58
726.096
688.44
627.948
566.177
508.039
463.73
424.08
391.076
359.757
336.271
318.883
305.897
297.537
290.754
292.23
296.006
308.848
330.88
365.586
412.72
473.502
543.628
618.719
687.281
740.293
773.694
768.889
741.54
686.536
609.124
529.802
453.721
392.862
357.367
356.663
366.182
383.843
399.881
416.156
441.678
520.23
657.491
848.391
1104.12
1355.64
1516.04
1650.43
1746.18
1793.39
1788.11
1746.32
1688.58
1615.08
1539.98
1466.21
1405.54
1352.04
1310.4
1276.03
1249.92
1229.41
1214.17
1202.79
1194.68
1189.08
1185.54
1183.93
1183.1
1183
1184.02
1185.55
1187.68
1190.15
1192.93
1195.92
1199.1
1202.41
1205.81
1209.27
1212.77
1216.28
1219.79
1223.29
1226.76
1230.19
1233.6
1236.97
1240.33
1243.69
1247.07
1250.52
1254.07
1257.79
1261.7
1265.82
1270.01
1274.02
1277.94
1281.73
1285.41
1288.97
1292.42
1295.74
1298.95
1302.04
1305.01
1307.86
1310.58
1313.19
1315.67
1318.02
1320.25
1322.36
1324.34
1326.19
1327.92
1329.52
1331
1332.36
1333.58
1334.68
1335.64
1336.44
1337.09
1337.56
1337.81
1337.83
1337.68
1337.53
1337.28
1336.91
1336.46
1335.82
1335.1
1334.28
1333.36
1332.34
1331.24
1330.05
1328.78
1327.41
1325.95
1324.41
1322.77
1321.04
1319.2
1317.35
1315.23
1313.33
1310.99
1309
1306.52
1304.44
1301.97
1299.74
1297.3
1294.87
1292.38
1289.86
1287.31
1284.72
1282.12
1279.5
1276.88
1274.26
1271.67
1269.11
1266.64
1264.3
1262.21
1260.54
1259.82
1260.67
1271.37
11463.6
2017.55
940.776
964.568
952.855
884.308
763.64
647.052
546.078
466.938
407.608
360.443
323.507
295.311
274.17
258.085
245.857
236.647
229.982
225.365
222.708
222.651
225.271
229.612
239.07
254.261
276.756
308.169
347.134
390.947
435.27
476.66
508.269
521.641
516.144
497.785
461.435
416.073
381.955
400.461
454.166
513.284
556.05
598.112
655.477
752.725
915.74
1110.7
1275.4
1364.93
1425.41
1470.16
1488.58
1448.85
1369.23
1323.45
1249.19
1191.24
1136.92
1090.52
1050.87
1019.41
993.851
974.503
959.532
948.602
940.611
935.075
931.431
929.361
928.57
928.357
928.986
930.183
931.82
933.869
936.186
938.748
941.479
944.353
947.334
950.398
953.523
956.691
959.887
963.099
966.316
969.53
972.736
975.928
979.107
982.272
985.427
988.579
991.733
994.9
998.088
1001.3
1004.54
1007.8
1011.05
1014.24
1017.32
1020.31
1023.21
1026.02
1028.74
1031.37
1033.89
1036.33
1038.66
1040.9
1043.03
1045.06
1046.99
1048.82
1050.54
1052.15
1053.66
1055.06
1056.35
1057.54
1058.61
1059.58
1060.43
1061.17
1061.8
1062.3
1062.68
1062.93
1063.05
1063.02
1062.87
1062.62
1062.29
1061.87
1061.35
1060.73
1060
1059.19
1058.29
1057.3
1056.23
1055.08
1053.85
1052.54
1051.15
1049.68
1048.12
1046.48
1044.76
1042.96
1041.1
1039.14
1037.18
1035.08
1033.03
1030.82
1028.69
1026.42
1024.19
1021.87
1019.51
1017.11
1014.68
1012.22
1009.73
1007.22
1004.71
1002.19
999.671
997.172
994.711
992.325
990.059
988.019
986.347
985.488
986.107
992.073
11463.7
2149.02
1425.21
1294.24
1065.55
847.115
660.493
524.322
429.984
364.337
317.44
283.811
259.607
241.422
227.406
216.532
208.045
201.478
196.546
193.068
190.891
190.439
191.204
192.897
196.982
203.65
213.782
228.616
249.376
275.617
304.605
334.39
362.564
385.209
399.029
397.489
389.25
395.957
447.541
546.78
619.6
677.074
744.575
837.32
951.56
1064.69
1153.8
1218.36
1266.4
1288.09
1286.02
1224.82
1161.92
1110.5
1050.35
1006.27
960.315
925.744
894.027
868.611
847.853
831.844
819.591
810.71
804.409
800.23
797.912
796.892
796.661
797.282
798.591
800.341
802.502
804.97
807.682
810.596
813.658
816.843
820.12
823.471
826.876
830.322
833.795
837.287
840.787
844.288
847.784
851.268
854.737
858.187
861.618
865.028
868.419
871.792
875.147
878.484
881.801
885.093
888.352
891.561
894.709
897.777
900.759
903.657
906.466
909.187
911.817
914.356
916.801
919.152
921.405
923.56
925.613
927.563
929.407
931.145
932.774
934.294
935.703
937.002
938.189
939.264
940.225
941.072
941.804
942.418
942.914
943.288
943.538
943.658
943.662
943.531
943.298
942.961
942.532
942.001
941.367
940.631
939.793
938.86
937.834
936.716
935.509
934.214
932.831
931.36
929.799
928.15
926.416
924.596
922.691
920.713
918.665
916.546
914.385
912.15
909.889
907.554
905.206
902.787
900.341
897.835
895.285
892.693
890.066
887.412
884.737
882.049
879.351
876.647
873.946
871.259
868.606
866.019
863.554
861.283
859.32
857.984
857.847
860.575
11463.6
2788.24
1855.56
1368.83
977.44
691.468
519.362
409.909
340.592
296.179
266.003
244.207
227.54
214.294
203.556
194.804
187.714
182.098
177.838
174.836
173.028
172.595
173.113
174.506
177.508
182.137
188.859
198.372
211.632
229.272
250.33
273.179
296.123
315.874
336.428
363.18
419.82
523.842
627.268
702.25
771.655
846.39
924.651
996.62
1053.36
1099.38
1133.45
1145.26
1126.89
1071.76
1024.26
974.57
927.44
890.489
853.124
824.281
797.404
776.345
758.261
744.186
733.302
725.372
719.855
716.468
714.864
714.388
714.838
716.215
718.178
720.646
723.501
726.645
730.024
733.584
737.286
741.099
744.997
748.959
752.969
757.014
761.081
765.161
769.247
773.33
777.406
781.467
785.509
789.527
793.515
797.471
801.393
805.279
809.128
812.938
816.708
820.436
824.116
827.742
831.304
834.793
838.204
841.528
844.764
847.908
850.96
853.915
856.773
859.531
862.189
864.745
867.195
869.537
871.766
873.881
875.879
877.758
879.514
881.148
882.657
884.042
885.301
886.433
887.437
888.314
889.061
889.677
890.163
890.517
890.73
890.801
890.752
890.58
890.288
889.882
889.365
888.735
887.99
887.133
886.165
885.09
883.909
882.625
881.24
879.753
878.165
876.476
874.684
872.789
870.797
868.71
866.531
864.27
861.936
859.537
857.082
854.568
852.009
849.393
846.738
844.024
841.264
838.446
835.579
832.668
829.722
826.751
823.762
820.763
817.755
814.743
811.732
808.732
805.762
802.851
800.043
797.4
795.009
793.102
791.996
792.66
11463.9
3527.75
1975.64
1225.91
776.197
537.146
408.579
338.486
294.972
265.418
243.749
226.837
213.058
201.538
191.791
183.578
176.787
171.37
167.311
164.51
162.941
162.663
163.275
164.926
167.862
172.091
178.092
186.368
197.603
212.337
230.675
253.086
281.652
319.555
370.42
455.509
571.212
670.582
746.987
816.136
879.048
931.288
971.378
1007.04
1026.56
1032.63
1008.76
963.919
923.194
882.488
844.52
810.983
781.018
755.494
732.383
713.663
697.48
684.696
674.483
666.934
661.635
658.488
657.108
656.836
657.748
659.594
662.148
665.288
668.857
672.768
676.939
681.308
685.83
690.47
695.198
699.991
704.831
709.702
714.591
719.487
724.382
729.268
734.141
738.993
743.82
748.617
753.379
758.099
762.773
767.396
771.964
776.477
780.932
785.328
789.661
793.929
798.128
802.253
806.303
810.273
814.151
817.931
821.611
825.188
828.659
832.02
835.27
838.405
841.42
844.312
847.082
849.727
852.244
854.629
856.879
858.99
860.961
862.789
864.474
866.014
867.409
868.658
869.76
870.716
871.524
872.184
872.696
873.059
873.257
873.31
873.229
873.011
872.66
872.179
871.573
870.839
869.978
868.992
867.882
866.652
865.302
863.835
862.253
860.556
858.745
856.816
854.769
852.601
850.305
847.888
845.366
842.753
840.061
837.3
834.48
831.604
828.676
825.696
822.665
819.576
816.428
813.219
809.955
806.644
803.298
799.929
796.545
793.153
789.757
786.356
782.957
779.567
776.204
772.892
769.671
766.591
763.717
761.222
759.239
758.343
11469.7
3808.42
1815.26
963.888
594.019
428.939
346.771
298.906
268.016
246.104
229.466
215.955
204.48
194.446
185.638
178.014
171.598
166.417
162.497
159.961
158.812
158.983
160.237
162.842
166.817
172.291
179.261
188.557
201.182
217.919
241.054
274.917
326.506
405.833
512.454
610.005
685.908
753.951
814.088
862.34
898.765
928.478
942.725
945.547
917.761
882.711
848.204
814.807
783.817
752.894
728.576
705.723
685.663
668.448
653.661
641.623
631.842
624.404
619.014
615.665
614.151
613.84
614.795
616.81
619.709
623.317
627.485
632.099
637.054
642.276
647.699
653.275
658.965
664.739
670.571
676.444
682.339
688.243
694.141
700.025
705.886
711.718
717.517
723.277
728.993
734.662
740.28
745.838
751.329
756.745
762.084
767.342
772.519
777.611
782.618
787.535
792.361
797.092
801.729
806.264
810.686
814.99
819.173
823.233
827.167
830.972
834.646
838.188
841.594
844.864
847.995
850.984
853.827
856.519
859.057
861.434
863.649
865.697
867.579
869.292
870.836
872.212
873.418
874.454
875.32
876.016
876.541
876.895
877.058
877.072
876.925
876.624
876.172
875.576
874.837
873.955
872.931
871.766
870.464
869.024
867.451
865.745
863.909
861.943
859.846
857.615
855.248
852.741
850.099
847.327
844.438
841.447
838.37
835.223
832.015
828.752
825.435
822.066
818.642
815.155
811.602
807.981
804.298
800.565
796.795
793.004
789.203
785.398
781.591
777.782
773.973
770.172
766.395
762.667
759.02
755.497
752.147
749.109
746.357
744.201
11488.8
3756.99
1487.41
756.457
495.261
383.073
323.403
285.88
260.914
242.35
227.199
214.359
203.162
193.274
184.591
177.139
171.012
166.31
163.137
161.366
160.918
161.764
163.889
167.576
173.221
181.236
192.364
208.326
230.895
262.195
307.395
376.394
464.465
550.215
621.093
683.181
738.171
786.009
825.27
856.687
870.908
873.058
847.784
817.654
787.86
759.877
733.441
707.704
687.402
667.522
650.252
634.423
620.76
609.232
599.734
592.275
586.689
582.905
581.017
580.474
581.161
583.059
585.989
589.793
594.327
599.458
605.069
611.064
617.36
623.893
630.603
637.444
644.381
651.383
658.425
665.486
672.557
679.616
686.648
693.643
700.593
707.493
714.337
721.123
727.845
734.495
741.058
747.54
753.939
760.244
766.449
772.549
778.543
784.43
790.206
795.87
801.416
806.841
812.137
817.3
822.326
827.212
831.953
836.549
840.996
845.291
849.434
853.422
857.254
860.929
864.445
867.799
870.988
874.008
876.85
879.509
881.978
884.254
886.336
888.222
889.912
891.406
892.703
893.804
894.709
895.418
895.932
896.239
896.347
896.278
896.026
895.598
895.002
894.244
893.327
892.251
891.018
889.629
888.085
886.389
884.543
882.549
880.409
878.124
875.691
873.107
870.365
867.461
864.397
861.184
857.838
854.377
850.825
847.2
843.517
839.78
835.992
832.151
828.253
824.286
820.243
816.124
811.934
807.69
803.411
799.113
794.81
790.51
786.211
781.912
777.612
773.318
769.048
764.825
760.679
756.647
752.762
749.16
745.743
742.651
11519.6
3323.95
1181.33
626.113
437.508
352.808
307.003
279.018
258.315
242.22
229.114
217.69
207.415
198.173
190.048
183.199
177.805
173.993
171.87
171.272
172.248
174.764
178.938
185.494
195.477
210.13
231.548
263.765
309.278
368.806
436.763
502.772
563.494
618.191
667.136
710.426
747.496
780.393
801.621
806.506
788.882
763.477
737.76
713.301
690.666
668.829
652.063
635.92
621.456
607.583
595.189
584.231
575.003
567.507
561.706
557.551
555.153
554.264
554.521
556.111
558.834
562.584
567.237
572.664
578.741
585.357
592.413
599.822
607.514
615.448
623.546
631.763
640.064
648.417
656.789
665.143
673.425
681.659
689.855
698.005
706.097
714.126
722.087
729.979
737.798
745.544
753.22
760.807
768.279
775.621
782.821
789.874
796.779
803.537
810.145
816.602
822.905
829.05
835.032
840.852
846.506
851.991
857.303
862.441
867.402
872.184
876.787
881.21
885.452
889.513
893.392
897.09
900.605
903.93
907.056
909.973
912.672
915.148
917.399
919.423
921.219
922.789
924.132
925.25
926.143
926.813
927.257
927.461
927.458
927.24
926.816
926.194
925.386
924.4
923.241
921.908
920.402
918.725
916.877
914.863
912.683
910.34
907.837
905.173
902.345
899.349
896.17
892.801
889.247
885.52
881.642
877.638
873.537
869.366
865.143
860.872
856.554
852.187
847.759
843.254
838.661
833.981
829.222
824.405
819.554
814.692
809.833
804.985
800.142
795.298
790.452
785.612
780.794
776.025
771.334
766.755
762.299
758.142
754.041
750.165
11551
2795.22
977.856
561.831
414.63
345.195
305.658
280.921
263.771
250.343
238.856
228.587
219.349
211.233
204.469
199.251
195.94
194.682
195.226
197.751
202.691
210.369
221.733
238.165
260.929
291.202
329.645
374.449
422.864
472.058
519.757
564.425
605.878
643.543
676.909
707.411
731.596
740.226
734.003
715.394
694.952
674.242
655.237
637.398
620.145
607.285
595.8
584.614
574.092
564.271
555.61
548.272
542.395
537.998
535.168
533.934
533.827
535.086
537.534
541.115
545.722
551.259
557.648
564.764
572.479
580.696
589.322
598.268
607.44
616.706
626.126
635.682
645.339
655.067
664.827
674.587
684.336
694.037
703.669
713.217
722.661
731.998
741.23
750.357
759.381
768.302
777.115
785.807
794.362
802.753
810.957
818.966
826.78
834.402
841.833
849.072
856.118
862.967
869.618
876.071
882.322
888.37
894.211
899.843
905.265
910.477
915.479
920.27
924.853
929.228
933.398
937.367
941.135
944.701
948.047
951.157
954.019
956.625
958.972
961.058
962.883
964.448
965.754
966.803
967.598
968.14
968.418
968.446
968.228
967.769
967.078
966.167
965.054
963.752
962.264
960.59
958.729
956.683
954.453
952.042
949.451
946.685
943.744
940.63
937.339
933.861
930.172
926.26
922.132
917.808
913.314
908.682
903.954
899.167
894.34
889.476
884.573
879.625
874.613
869.513
864.309
859.003
853.609
848.155
842.674
837.194
831.73
826.285
820.849
815.41
809.967
804.525
799.108
793.748
788.469
783.309
778.246
773.562
768.75
764.331
11574.8
2288.69
850.756
520.434
399.876
342.076
310.332
290.185
275.705
264.228
254.534
246.173
239.138
233.61
230.195
228.997
229.814
233.365
239.044
246.81
257.785
273.083
293.347
318.524
348.088
381.054
416.139
451.932
487.57
522.353
555.611
586.469
614.745
641.392
665.752
677.396
678.431
667.166
653.86
637.62
621.993
606.911
592.255
581.536
571.658
563.136
555.025
547.155
539.807
533.24
527.749
523.474
520.533
519.126
518.872
519.969
522.382
526.013
530.729
536.45
543.08
550.499
558.523
567.134
576.345
586.082
596.257
606.786
617.602
628.687
639.945
651.313
662.75
674.24
685.733
697.169
708.514
719.725
730.765
741.618
752.306
762.842
773.24
783.507
793.65
803.673
813.581
823.37
833.019
842.471
851.676
860.618
869.302
877.74
885.937
893.891
901.604
909.074
916.302
923.289
930.032
936.531
942.784
948.79
954.548
960.061
965.328
970.353
975.139
979.688
984.009
988.108
991.997
995.68
999.129
1002.32
1005.22
1007.84
1010.16
1012.18
1013.91
1015.34
1016.48
1017.33
1017.89
1018.18
1018.17
1017.88
1017.32
1016.49
1015.4
1014.08
1012.54
1010.8
1008.88
1006.76
1004.44
1001.92
999.21
996.305
993.21
989.928
986.462
982.812
978.976
974.936
970.65
966.098
961.296
956.275
951.068
945.716
940.277
934.803
929.311
923.799
918.259
912.68
907.032
901.275
895.393
889.392
883.294
877.138
870.972
864.825
858.712
852.629
846.555
840.472
834.378
828.283
822.217
816.222
810.319
804.554
798.843
793.699
788.088
783.503
11588.5
2065.09
816.245
513.322
401.407
350.33
322.385
304.596
292.115
282.706
275.381
269.806
266.234
264.846
265.211
268.31
273.879
281.751
291.722
304.667
320.714
339.756
361.464
385.299
410.625
436.781
463.177
489.388
514.947
539.223
562.221
584.434
605.651
619.273
623.038
618.858
611.8
601.106
589.889
578.064
566.205
557.421
549.757
543.35
537.38
531.855
526.604
521.727
517.483
514.142
512.125
511.303
511.461
512.896
515.476
519.162
523.742
529.332
536.001
543.69
552.317
561.798
572.088
583.091
594.694
606.805
619.313
632.122
645.156
658.367
671.694
685.016
698.275
711.433
724.483
737.383
750.094
762.578
774.803
786.754
798.464
809.982
821.336
832.542
843.609
854.55
865.385
876.136
886.8
897.252
907.36
917.098
926.496
935.58
944.364
952.85
961.038
968.929
976.526
983.833
990.851
997.58
1004.02
1010.17
1016.04
1021.62
1026.93
1031.96
1036.71
1041.21
1045.45
1049.46
1053.25
1056.86
1060.23
1063.32
1066.08
1068.52
1070.63
1072.4
1073.83
1074.94
1075.73
1076.2
1076.35
1076.19
1075.72
1074.94
1073.86
1072.49
1070.84
1068.92
1066.8
1064.5
1062
1059.3
1056.4
1053.29
1049.98
1046.46
1042.75
1038.84
1034.74
1030.46
1025.98
1021.29
1016.3
1010.99
1005.39
999.553
993.523
987.347
981.108
974.882
968.672
962.463
956.24
949.986
943.648
937.167
930.531
923.759
916.883
909.959
903.057
896.204
889.408
882.653
875.899
869.122
862.326
855.522
848.762
842.099
835.543
829.159
822.751
817.292
810.674
806.631
11596.5
1922.52
776.454
506.705
408.743
363.494
338.699
322.335
311.434
303.998
299.179
296.873
296.33
297.894
301.785
307.853
315.978
326.089
338.302
352.41
368.27
385.619
404.101
423.358
443.002
462.63
481.95
500.722
518.94
537.05
554.704
567.056
571.846
572.407
569.835
564.709
558.279
550.656
542.402
536.219
531.222
527.375
524.23
521.731
519.484
517.512
515.858
514.666
514.116
514.071
514.467
515.925
518.527
522.406
527.56
534.053
542.077
551.378
561.769
573.121
585.331
598.306
611.967
626.202
640.923
656.045
671.374
686.777
702.144
717.362
732.313
746.984
761.384
775.588
789.703
803.562
817.115
830.329
843.175
855.585
867.661
879.557
891.31
902.938
914.44
925.825
937.136
948.464
959.947
971.252
981.991
992.172
1001.91
1011.26
1020.26
1028.9
1037.19
1045.12
1052.7
1059.94
1066.85
1073.43
1079.68
1085.6
1091.21
1096.49
1101.47
1106.14
1110.52
1114.62
1118.44
1122.01
1125.37
1128.67
1131.71
1134.42
1136.78
1138.77
1140.39
1141.64
1142.53
1143.06
1143.23
1143.06
1142.57
1141.72
1140.55
1139.05
1137.23
1135.09
1132.66
1129.94
1127.05
1124.01
1120.79
1117.36
1113.72
1109.87
1105.81
1101.55
1097.08
1092.42
1087.57
1082.53
1077.3
1071.86
1066.03
1059.8
1053.26
1046.48
1039.5
1032.38
1025.26
1018.24
1011.27
1004.33
997.379
990.41
983.329
976.042
968.563
960.933
953.197
945.443
937.769
930.187
922.688
915.235
907.759
900.237
892.681
885.114
877.621
870.271
863.041
856.042
848.877
843.395
835.352
831.751
11599.3
1905.58
775.519
514.641
422.476
381.483
360.157
342.234
331.957
325.98
323.227
322.514
323.955
327.675
333.205
340.405
349.161
359.352
370.833
383.467
397.017
411.222
425.848
440.685
455.545
470.293
484.866
499.253
513.24
523.159
528.735
531.853
532.845
532.931
531.656
529.511
526.495
525.222
524.407
524.154
524.262
524.643
524.935
525.058
525.507
526.407
527.856
529.982
532.915
536.742
541.773
548.004
555.527
564.36
574.523
586.13
599.334
613.787
629.243
645.415
662.154
679.343
696.871
714.617
732.432
750.183
767.828
785.273
802.411
819.128
835.31
850.878
865.821
880.206
894.123
907.565
920.614
933.263
945.53
957.004
968.031
979.143
990.243
1001.35
1012.38
1023.32
1034.22
1045.34
1057.48
1069.53
1080.35
1090.29
1099.71
1108.74
1117.39
1125.63
1133.45
1140.86
1147.86
1154.48
1160.74
1166.63
1172.16
1177.34
1182.17
1186.66
1190.82
1194.66
1198.19
1201.42
1204.38
1207.07
1209.52
1211.77
1213.77
1215.47
1216.82
1217.84
1218.48
1218.76
1218.67
1218.27
1217.5
1216.41
1215.01
1213.29
1211.26
1208.93
1206.29
1203.35
1200.12
1196.61
1192.86
1188.92
1184.76
1180.4
1175.83
1171.04
1166.05
1160.85
1155.46
1149.87
1144.1
1138.14
1132.01
1125.68
1118.84
1111.49
1103.83
1095.95
1087.89
1079.71
1071.64
1063.82
1056.08
1048.37
1040.67
1032.95
1025.06
1016.86
1008.43
999.847
991.166
982.53
974.077
965.765
957.561
949.393
941.145
932.816
924.441
916.055
907.72
899.494
891.432
883.623
875.729
869.685
860.981
856.863
11599.4
1866.29
771.37
524.175
437.623
399.312
374.659
360.66
351.736
346.831
344.889
344.658
346.994
351.281
357.065
364.106
372.258
381.414
391.427
402.156
413.465
425.257
437.487
450.17
463.077
476.108
488.411
498.387
506.228
512.344
518.416
522.23
524.772
527.349
530.32
532.161
533.71
536.165
539.107
542.583
546.539
550.907
555.748
561.213
567.286
574.071
581.664
590.142
599.582
610.093
621.828
634.809
649.244
664.894
681.517
698.938
716.802
735.022
753.563
772.436
791.554
810.817
830.125
849.375
868.463
887.286
905.766
923.83
941.397
958.379
974.671
990.112
1004.65
1018.29
1031.11
1043.53
1055.94
1068.25
1081.28
1092.58
1102.54
1111.94
1121.36
1131.03
1140.69
1150.2
1159.59
1168.97
1178.52
1187.93
1196.84
1205.26
1213.4
1221.28
1228.79
1235.84
1242.41
1248.52
1254.2
1259.48
1264.38
1268.9
1273.06
1276.87
1280.32
1283.43
1286.21
1288.67
1290.82
1292.7
1294.32
1295.69
1296.81
1297.69
1298.32
1298.65
1298.65
1298.37
1297.71
1296.69
1295.34
1293.68
1291.71
1289.44
1286.89
1284.07
1280.96
1277.59
1273.93
1270
1265.78
1261.3
1256.57
1251.61
1246.44
1241.06
1235.48
1229.69
1223.7
1217.51
1211.14
1204.59
1197.86
1190.96
1183.9
1176.67
1169.18
1161.37
1153.29
1145
1136.54
1127.94
1119.3
1110.73
1102.2
1093.69
1085.18
1076.66
1067.88
1058.6
1049.08
1039.45
1029.74
1020.2
1011.02
1002.01
993.115
984.219
975.129
965.919
956.661
947.408
938.214
929.127
920.275
911.718
903.108
896.129
886.828
881.683
11596
1847.14
774.82
535.489
451.026
412.945
393.154
380.416
372.001
367.413
365.604
365.236
367.051
370.791
376.654
383.628
391.681
400.793
410.966
422.086
433.955
446.392
458.913
471.22
483.108
494.287
503.995
514.216
524.224
533.648
542.886
551.336
559.622
568.242
577.291
586.666
596.494
606.77
617.459
628.525
639.969
651.904
664.453
677.706
691.64
706.324
721.841
738.145
755.176
772.923
791.388
810.573
830.42
850.572
870.934
891.368
911.703
931.805
951.584
970.992
989.981
1008.51
1026.53
1044.01
1060.91
1077.21
1092.89
1107.94
1122.36
1136.12
1149.22
1161.68
1173.53
1184.59
1195.14
1205.68
1217.49
1228.84
1239.27
1248.73
1257.16
1264.67
1272.17
1279.59
1286.75
1293.64
1300.26
1306.66
1312.91
1318.97
1324.75
1330.33
1336.07
1341.85
1347.23
1352.06
1356.36
1360.19
1363.62
1366.66
1369.37
1371.75
1373.79
1375.51
1376.93
1378.04
1378.87
1379.42
1379.71
1379.79
1379.7
1379.41
1378.9
1378.18
1377.24
1376.03
1374.51
1372.69
1370.55
1368.1
1365.35
1362.33
1359.05
1355.53
1351.79
1347.81
1343.6
1339.16
1334.47
1329.54
1324.35
1318.91
1313.24
1307.36
1301.27
1294.98
1288.51
1281.85
1275
1267.98
1260.79
1253.43
1245.92
1238.25
1230.43
1222.46
1214.32
1205.96
1197.4
1188.67
1179.77
1170.74
1161.62
1152.47
1143.29
1134.11
1124.9
1115.68
1106.37
1096.84
1087.13
1077.3
1067.39
1057.48
1047.7
1038.03
1028.45
1018.81
1008.76
998.584
988.388
978.236
968.177
958.254
948.693
939.471
930.208
922.347
912.195
905.767
11590.2
1826.82
780.085
546.537
468.315
433.761
417.048
407.376
399.918
394.436
392.164
391.533
392.916
397.74
405.712
415.075
426.048
438.032
451.253
465.769
481.359
497.736
514.788
532.346
550.372
568.857
587.967
608.533
629.919
651.673
673.67
695.932
718.535
741.551
765.04
789.032
813.108
837.001
860.695
884.153
907.389
930.5
953.552
976.573
999.586
1022.74
1046.57
1070.55
1094.14
1117.14
1139.43
1160.77
1180.72
1199.6
1217.49
1234.38
1250.22
1264.99
1278.73
1291.5
1303.34
1314.29
1324.4
1333.72
1342.29
1350.16
1357.37
1363.97
1370
1375.52
1380.61
1385.47
1390.25
1394.98
1399.69
1404.4
1409.34
1414.25
1418.74
1422.9
1426.92
1431.25
1435.27
1438.65
1441.53
1444.01
1446.21
1448.19
1450.02
1451.71
1453.28
1454.84
1457.65
1460.89
1463.29
1464.87