/*--------------------------------*- C++ -*----------------------------------*\
| =========                 |                                                 |
| \\      /  F ield         | OpenFOAM: The Open Source CFD Toolbox           |
|  \\    /   O peration     | Version:  4.x                                   |
|   \\  /    A nd           | Web:      www.OpenFOAM.org                      |
|    \\/     M anipulation  |                                                 |
\*---------------------------------------------------------------------------*/
FoamFile
{
    version     2.0;
    format      ascii;
    class       volScalarField;
    location    "400";
    object      p;
}
// * * * * * * * * * * * * * * * * * * * * * * * * * * * * * * * * * * * * * //

dimensions      [0 2 -2 0 0 0 0];

internalField   nonuniform List<scalar> 
12225
(
-4.40736
-5.28205
-5.66798
-5.78248
-5.90098
-6.04571
-6.17658
-6.28424
-6.37634
-6.46071
-6.54245
-6.62232
-6.70091
-6.78015
-6.86261
-6.95265
-7.05314
-7.17503
-4.68559
-5.33544
-5.65948
-5.76959
-5.88478
-6.02528
-6.15401
-6.26149
-6.35523
-6.44226
-6.52552
-6.6059
-6.68444
-6.76299
-6.84375
-6.92979
-7.01932
-7.109
-4.89475
-5.33224
-5.63416
-5.7684
-5.88919
-6.02611
-6.1519
-6.25778
-6.35092
-6.43758
-6.51964
-6.59836
-6.67492
-6.75091
-6.82759
-6.90597
-6.98127
-7.04299
-5.04331
-5.35724
-5.643
-5.78761
-5.90316
-6.03008
-6.14967
-6.25239
-6.34361
-6.42854
-6.50906
-6.58626
-6.66114
-6.73465
-6.80728
-6.87852
-6.94337
-6.99368
-5.17022
-5.40459
-5.65989
-5.80458
-5.91568
-6.03514
-6.14991
-6.25016
-6.33964
-6.42293
-6.50192
-6.57736
-6.65001
-6.72038
-6.78846
-6.85305
-6.91016
-6.95404
-5.28528
-5.45761
-5.67616
-5.81851
-5.92775
-6.04119
-6.15106
-6.24853
-6.33603
-6.41751
-6.49466
-6.568
-6.63806
-6.70508
-6.76873
-6.82765
-6.87886
-6.91837
-5.38952
-5.51379
-5.69648
-5.8333
-5.94014
-6.0473
-6.15169
-6.24597
-6.33127
-6.41077
-6.48585
-6.55694
-6.62432
-6.68805
-6.74763
-6.80183
-6.84858
-6.88539
-5.46972
-5.56385
-5.7188
-5.84772
-5.95123
-6.05285
-6.15226
-6.24344
-6.32655
-6.40407
-6.47717
-6.54615
-6.61116
-6.67214
-6.72858
-6.77946
-6.82337
-6.85869
-5.53493
-5.60898
-5.74129
-5.8617
-5.96163
-6.05829
-6.15312
-6.24126
-6.32218
-6.39772
-6.46887
-6.53585
-6.5987
-6.65729
-6.71116
-6.75951
-6.80137
-6.8357
-5.5999
-5.65765
-5.76814
-5.87831
-5.97363
-6.06492
-6.15465
-6.23919
-6.31746
-6.39061
-6.45944
-6.52412
-6.58457
-6.64065
-6.69196
-6.73793
-6.77797
-6.81149
-5.66382
-5.70857
-5.79917
-5.89776
-5.98728
-6.07281
-6.15701
-6.23736
-6.31246
-6.38281
-6.44897
-6.51104
-6.5689
-6.62237
-6.67117
-6.71494
-6.75338
-6.78619
-5.72562
-5.76029
-5.83362
-5.91991
-6.00248
-6.08191
-6.16023
-6.23586
-6.30727
-6.3744
-6.43755
-6.49675
-6.55185
-6.60269
-6.64907
-6.6908
-6.72779
-6.75994
-5.78415
-5.81115
-5.87011
-5.94422
-6.01894
-6.09195
-6.1642
-6.23467
-6.30192
-6.36545
-6.4253
-6.48142
-6.53367
-6.58188
-6.62595
-6.6658
-6.70146
-6.73294
-5.83801
-5.85927
-5.9067
-5.96952
-6.03601
-6.1024
-6.16854
-6.23362
-6.29635
-6.356
-6.41235
-6.46528
-6.51464
-6.56028
-6.60216
-6.64025
-6.67467
-6.70548
-5.8854
-5.90242
-5.94094
-5.99398
-6.05249
-6.11234
-6.17255
-6.23228
-6.29038
-6.34602
-6.39881
-6.44855
-6.49507
-6.53825
-6.57807
-6.61455
-6.6478
-6.67792
-5.92385
-5.93784
-5.9698
-6.01503
-6.06653
-6.12037
-6.17514
-6.22989
-6.28356
-6.33533
-6.3847
-6.4314
-6.47525
-6.51617
-6.55411
-6.58912
-6.6213
-6.65074
-5.94991
-5.96189
-5.98949
-6.02923
-6.07538
-6.12437
-6.17465
-6.22523
-6.27512
-6.3235
-6.36986
-6.41389
-6.45544
-6.49439
-6.53072
-6.56446
-6.59571
-6.62456
-5.95786
-5.96901
-5.9948
-6.03207
-6.07549
-6.12174
-6.16932
-6.21728
-6.26469
-6.31079
-6.35507
-6.39724
-6.43715
-6.47471
-6.5099
-6.54275
-6.57334
-6.60177
-5.94723
-5.95877
-5.98537
-6.02332
-6.06688
-6.11273
-6.15965
-6.20682
-6.25335
-6.2985
-6.34183
-6.3831
-6.42218
-6.45901
-6.49359
-6.52597
-6.55622
-6.58445
-5.92275
-5.93581
-5.96556
-6.00687
-6.05274
-6.09993
-6.14771
-6.19547
-6.2423
-6.28749
-6.33069
-6.37176
-6.4106
-6.44719
-6.48155
-6.51375
-6.54389
-6.57209
-5.88746
-5.90335
-5.93886
-5.98591
-6.03561
-6.0852
-6.13487
-6.18416
-6.23204
-6.27788
-6.32147
-6.36277
-6.40174
-6.43837
-6.47272
-6.50491
-6.53505
-6.56329
-5.84303
-5.8636
-5.90805
-5.96306
-6.01739
-6.06991
-6.12216
-6.17359
-6.22296
-6.26977
-6.31405
-6.35584
-6.39512
-6.43193
-6.46638
-6.49862
-6.52881
-6.55712
-5.79015
-5.81827
-5.87573
-5.9404
-5.99937
-6.05504
-6.11036
-6.16425
-6.21523
-6.26315
-6.30829
-6.35071
-6.39039
-6.42742
-6.46199
-6.49429
-6.5245
-6.55287
-5.72872
-5.76902
-5.84454
-5.9195
-5.98224
-6.04115
-6.09998
-6.1564
-6.20891
-6.25794
-6.30399
-6.34707
-6.38717
-6.42441
-6.45905
-6.49136
-6.52156
-6.54995
-5.65799
-5.71754
-5.81722
-5.90165
-5.96639
-6.02845
-6.09101
-6.14985
-6.20376
-6.25388
-6.30086
-6.3446
-6.38507
-6.42245
-6.45706
-6.48924
-6.51929
-6.54758
-5.5772
-5.66539
-5.79507
-5.88719
-5.95237
-6.01728
-6.0831
-6.14381
-6.19883
-6.25001
-6.29797
-6.34245
-6.38337
-6.42096
-6.4556
-6.48769
-6.51764
-6.54602
-5.48587
-5.61646
-5.77572
-5.87171
-5.93817
-6.00734
-6.07639
-6.13845
-6.19425
-6.24628
-6.295
-6.34001
-6.38116
-6.41874
-6.45314
-6.48485
-6.51439
-6.54252
-5.37465
-5.58417
-5.76338
-5.85089
-5.91806
-5.99421
-6.06843
-6.13327
-6.19128
-6.24549
-6.29609
-6.34249
-6.38457
-6.42263
-6.45713
-6.48871
-6.51813
-6.54705
-5.20103
-5.57615
-5.78719
-5.85486
-5.91324
-5.98983
-6.06433
-6.12834
-6.18602
-6.24067
-6.29197
-6.33892
-6.38135
-6.41941
-6.45334
-6.48379
-6.51196
-6.53909
-4.94251
-5.50248
-5.77888
-5.85409
-5.91659
-5.9991
-6.07727
-6.14281
-6.20158
-6.25736
-6.30965
-6.35729
-6.40002
-6.43781
-6.4702
-6.49772
-6.52209
-6.54257
-7.54791
-7.54806
-7.54817
-7.54829
-7.54834
-7.54749
-7.54461
-7.53968
-7.53421
-7.52967
-7.52764
-7.52926
-7.53435
-7.542
-7.5511
-7.56062
-7.56961
-7.5773
-7.58309
-7.58664
-7.58819
-7.58828
-7.58724
-7.58532
-7.58293
-7.58055
-7.57861
-7.57736
-7.57681
-7.57673
-7.57672
-7.57649
-7.576
-7.57535
-7.57468
-7.57408
-7.57352
-7.5727
-7.57122
-7.5689
-7.56616
-7.56378
-7.56274
-7.56366
-7.56609
-7.56894
-7.57133
-7.57295
-7.57405
-7.5751
-7.57644
-7.57827
-7.58182
-7.58796
-7.59366
-7.59518
-7.59129
-7.58619
-7.58655
-7.59993
-7.63029
-7.67871
-7.74344
-7.82129
-7.90817
-7.99954
-8.09104
-8.17924
-8.26184
-8.33747
-8.4054
-8.46542
-8.51761
-8.56224
-8.59967
-8.63028
-8.65441
-8.67239
-8.68448
-8.69089
-8.69181
-8.68737
-8.67766
-8.66276
-8.6427
-8.61751
-8.58721
-8.55178
-8.51122
-8.46549
-8.41456
-8.3584
-8.29696
-8.2302
-8.15809
-8.08059
-7.99765
-7.90925
-7.81539
-7.71619
-7.61165
-7.50146
-7.38535
-7.26341
-7.13577
-7.0025
-6.86363
-6.71919
-6.56922
-6.41379
-6.25294
-6.08676
-5.91532
-5.73873
-5.55707
-5.37046
-5.17902
-4.98286
-4.78212
-4.57693
-4.36743
-4.15378
-3.93612
-3.71463
-3.48947
-3.26083
-3.0289
-2.79386
-2.55589
-2.31522
-2.07209
-1.82678
-1.5794
-1.32997
-1.07866
-0.825802
-0.571628
-0.316362
-0.0602251
0.196573
0.453838
0.711378
0.969005
1.22653
1.48377
1.74055
1.9967
2.25205
2.50646
2.75979
3.01189
3.26266
3.51195
3.75963
4.00557
4.24961
4.49163
4.7315
4.96909
5.20432
5.43709
5.66732
5.89496
6.11995
6.3422
6.56165
6.77819
6.99172
7.2021
7.40923
7.61299
7.81327
8.00993
8.20287
8.39197
8.57711
8.75822
8.93526
9.11071
9.27486
-7.5495
-7.54978
-7.55041
-7.55132
-7.55189
-7.55141
-7.5492
-7.54537
-7.5415
-7.53949
-7.54032
-7.54411
-7.55047
-7.55863
-7.56766
-7.57667
-7.58501
-7.59218
-7.59788
-7.60191
-7.60397
-7.60385
-7.60175
-7.59814
-7.59361
-7.58887
-7.58458
-7.58125
-7.57903
-7.57769
-7.57672
-7.57572
-7.57476
-7.57423
-7.57418
-7.57431
-7.57431
-7.57389
-7.57272
-7.57072
-7.56839
-7.56672
-7.56658
-7.56817
-7.57075
-7.57317
-7.57477
-7.57522
-7.5747
-7.57471
-7.57518
-7.57393
-7.5715
-7.57209
-7.58077
-7.59233
-7.59668
-7.59516
-7.59933
-7.61779
-7.65487
-7.71091
-7.7833
-7.86734
-7.95749
-8.04893
-8.13786
-8.22169
-8.29892
-8.36881
-8.43115
-8.48601
-8.53367
-8.57446
-8.60869
-8.6367
-8.65877
-8.67513
-8.68598
-8.69147
-8.69172
-8.68682
-8.67683
-8.66178
-8.6417
-8.61659
-8.58646
-8.55128
-8.51103
-8.46569
-8.41521
-8.35956
-8.29869
-8.23255
-8.16111
-8.0843
-8.00207
-7.91436
-7.82108
-7.72213
-7.61742
-7.5071
-7.39134
-7.27008
-7.14322
-7.01075
-6.87269
-6.72907
-6.57992
-6.42529
-6.26525
-6.09986
-5.92921
-5.7534
-5.57251
-5.38666
-5.19596
-5.00053
-4.8005
-4.59601
-4.38719
-4.17419
-3.95718
-3.7363
-3.51174
-3.28367
-3.05227
-2.81771
-2.58017
-2.33983
-2.09686
-1.85146
-1.6039
-1.35453
-1.10352
-0.850952
-0.597049
-0.342031
-0.0861175
0.170485
0.427583
0.684982
0.942492
1.19993
1.4571
1.71383
1.96996
2.22531
2.47973
2.73308
2.98522
3.23604
3.48541
3.73318
3.97922
4.22339
4.46555
4.70557
4.94334
5.17875
5.4117
5.64212
5.86995
6.09513
6.31758
6.53722
6.75397
6.96772
7.17834
7.38573
7.58977
7.79035
7.98736
8.1807
8.37033
8.55615
8.73822
8.91605
9.09391
9.25757
-7.55113
-7.55118
-7.55138
-7.55171
-7.5521
-7.5522
-7.55206
-7.55231
-7.55384
-7.55725
-7.5626
-7.56957
-7.57768
-7.58632
-7.59491
-7.60296
-7.61008
-7.61598
-7.62047
-7.62344
-7.6248
-7.62449
-7.62259
-7.61929
-7.61481
-7.6094
-7.60337
-7.5971
-7.59098
-7.58537
-7.5806
-7.5769
-7.57447
-7.57325
-7.5728
-7.57255
-7.57209
-7.57124
-7.56991
-7.56834
-7.56731
-7.5678
-7.57012
-7.57363
-7.57699
-7.57881
-7.5786
-7.57584
-7.57051
-7.56515
-7.56351
-7.56678
-7.57024
-7.57395
-7.58528
-7.60474
-7.62803
-7.6537
-7.68517
-7.72587
-7.77675
-7.83699
-7.90472
-7.97741
-8.05235
-8.12715
-8.19985
-8.269
-8.33361
-8.39304
-8.44696
-8.49519
-8.53769
-8.57453
-8.60579
-8.63158
-8.65203
-8.66725
-8.67732
-8.68231
-8.6823
-8.67731
-8.66738
-8.65251
-8.63271
-8.60797
-8.57827
-8.54359
-8.5039
-8.45917
-8.40936
-8.35441
-8.29429
-8.22895
-8.15833
-8.08238
-8.00105
-7.9143
-7.82207
-7.72428
-7.62081
-7.5117
-7.39704
-7.27682
-7.15103
-7.01965
-6.88268
-6.74015
-6.5921
-6.43857
-6.27962
-6.11532
-5.94575
-5.77101
-5.59118
-5.40637
-5.21671
-5.0223
-4.82328
-4.61977
-4.41192
-4.19987
-3.98378
-3.7638
-3.54011
-3.31288
-3.08228
-2.84851
-2.61174
-2.37217
-2.12998
-1.88534
-1.63849
-1.38972
-1.13923
-0.887176
-0.633755
-0.379191
-0.123698
0.132526
0.38928
0.646371
0.903608
1.1608
1.41777
1.67433
1.9303
2.18553
2.43985
2.69312
2.9452
3.19598
3.44532
3.69309
3.93915
4.18336
4.42558
4.66568
4.90354
5.13905
5.37211
5.60263
5.83056
6.05582
6.27834
6.49806
6.71487
6.92868
7.13937
7.34683
7.55094
7.7516
7.94872
8.14218
8.33191
8.51784
8.7003
8.8782
9.05854
9.21854
-7.5521
-7.55183
-7.55143
-7.55134
-7.55233
-7.55511
-7.55972
-7.56583
-7.57308
-7.58115
-7.58973
-7.59847
-7.60709
-7.61531
-7.62288
-7.62959
-7.63524
-7.63966
-7.64275
-7.64446
-7.64474
-7.64358
-7.64104
-7.63721
-7.63221
-7.62617
-7.61921
-7.61148
-7.60321
-7.59469
-7.58634
-7.57867
-7.57212
-7.56694
-7.56306
-7.56016
-7.55788
-7.55605
-7.55504
-7.5557
-7.55879
-7.56403
-7.56998
-7.57509
-7.57754
-7.57632
-7.57248
-7.56803
-7.56467
-7.56333
-7.56586
-7.57503
-7.59025
-7.60956
-7.63393
-7.66418
-7.69944
-7.73848
-7.78108
-7.82787
-7.87921
-7.93496
-7.99446
-8.05661
-8.12008
-8.18346
-8.24548
-8.30505
-8.36134
-8.4137
-8.46172
-8.50512
-8.54372
-8.57745
-8.60628
-8.63021
-8.64926
-8.66343
-8.67277
-8.67729
-8.677
-8.6719
-8.662
-8.64728
-8.62773
-8.60332
-8.57402
-8.53981
-8.50065
-8.4565
-8.40732
-8.35305
-8.29365
-8.22907
-8.15923
-8.08409
-8.00358
-7.91766
-7.82626
-7.72933
-7.62683
-7.51876
-7.40514
-7.28595
-7.16119
-7.03085
-6.89492
-6.75344
-6.60644
-6.45396
-6.29606
-6.1328
-5.96426
-5.79053
-5.61172
-5.42792
-5.23925
-5.04582
-4.84777
-4.64522
-4.4383
-4.22716
-4.01196
-3.79286
-3.57001
-3.34359
-3.11379
-2.88077
-2.64474
-2.40587
-2.16438
-1.92043
-1.67426
-1.4261
-1.17614
-0.924587
-0.67164
-0.41752
-0.162436
0.0934121
0.349824
0.606607
0.863567
1.12052
1.37727
1.63364
1.88946
2.14455
2.39876
2.65194
2.90396
3.15469
3.404
3.65176
3.89782
4.14206
4.38432
4.62447
4.8624
5.09799
5.33113
5.56174
5.78975
6.01508
6.23767
6.45744
6.67431
6.88815
7.09887
7.30635
7.51049
7.71117
7.90832
8.10184
8.29168
8.47774
8.66046
8.83811
9.01914
9.17344
-7.55415
-7.5536
-7.55304
-7.55399
-7.55826
-7.56575
-7.5752
-7.58554
-7.59605
-7.60627
-7.61593
-7.62493
-7.63321
-7.64069
-7.64728
-7.65286
-7.65731
-7.66054
-7.66248
-7.66308
-7.66233
-7.6602
-7.65673
-7.65197
-7.64598
-7.63884
-7.63064
-7.62147
-7.61146
-7.60072
-7.58946
-7.578
-7.56686
-7.55665
-7.5479
-7.54101
-7.53626
-7.53403
-7.53508
-7.53994
-7.54767
-7.55587
-7.56222
-7.56612
-7.56762
-7.5672
-7.56629
-7.56624
-7.56924
-7.57684
-7.58982
-7.60932
-7.63523
-7.66617
-7.70064
-7.73764
-7.77684
-7.81819
-7.86204
-7.90868
-7.9582
-8.01038
-8.06471
-8.12044
-8.17669
-8.23253
-8.28711
-8.33966
-8.38955
-8.43626
-8.47938
-8.51862
-8.55377
-8.58467
-8.61121
-8.63332
-8.65092
-8.664
-8.67251
-8.67643
-8.67574
-8.6704
-8.6604
-8.64569
-8.62624
-8.60202
-8.57298
-8.5391
-8.50033
-8.45662
-8.40794
-8.35421
-8.2954
-8.23144
-8.16226
-8.08781
-8.00802
-7.92284
-7.8322
-7.73606
-7.63438
-7.52716
-7.41439
-7.29605
-7.17214
-7.04264
-6.90756
-6.76693
-6.62078
-6.46914
-6.31207
-6.14964
-5.98193
-5.80902
-5.63102
-5.44802
-5.26015
-5.06751
-4.87023
-4.66843
-4.46226
-4.25186
-4.03737
-3.81896
-3.59679
-3.37103
-3.14186
-2.90946
-2.67401
-2.43571
-2.19475
-1.95133
-1.70566
-1.45798
-1.20846
-0.957312
-0.704753
-0.450997
-0.196249
0.059287
0.315416
0.571939
0.828665
1.0854
1.34197
1.59818
1.85385
2.10882
2.36292
2.61601
2.86797
3.11865
3.36792
3.61566
3.86173
4.10597
4.34825
4.58844
4.82641
5.06205
5.29525
5.52592
5.754
5.9794
6.20206
6.42189
6.63881
6.85271
7.06348
7.27102
7.47522
7.67597
7.87319
8.06679
8.25672
8.44281
8.62552
8.80254
8.98315
9.13121
-7.55859
-7.55754
-7.55763
-7.56213
-7.5711
-7.58234
-7.59433
-7.60621
-7.61744
-7.62783
-7.63736
-7.64606
-7.6539
-7.6608
-7.66669
-7.67148
-7.67509
-7.67745
-7.67851
-7.67825
-7.67664
-7.67367
-7.66937
-7.66377
-7.65689
-7.64875
-7.63936
-7.6288
-7.61716
-7.60453
-7.59102
-7.57685
-7.56247
-7.54861
-7.53617
-7.52633
-7.52029
-7.51897
-7.52251
-7.52903
-7.53619
-7.54267
-7.54787
-7.55206
-7.55576
-7.55988
-7.56554
-7.57401
-7.58714
-7.60576
-7.62963
-7.65818
-7.69038
-7.72566
-7.76343
-7.80309
-7.84438
-7.88716
-7.93157
-7.97764
-8.02534
-8.07443
-8.12458
-8.1753
-8.22601
-8.27613
-8.32506
-8.37223
-8.41717
-8.45943
-8.49864
-8.53451
-8.56679
-8.59528
-8.61981
-8.64027
-8.65655
-8.66857
-8.67626
-8.67955
-8.67839
-8.67274
-8.66253
-8.64772
-8.62827
-8.60411
-8.57522
-8.54153
-8.50302
-8.45962
-8.41129
-8.35797
-8.29961
-8.23612
-8.16746
-8.09354
-8.01431
-7.92971
-7.83967
-7.74416
-7.64313
-7.53656
-7.42443
-7.30674
-7.18347
-7.05461
-6.92017
-6.78017
-6.63464
-6.48363
-6.32717
-6.16535
-5.99824
-5.82592
-5.6485
-5.46609
-5.27879
-5.08672
-4.89
-4.68876
-4.48313
-4.27326
-4.05929
-3.84139
-3.61971
-3.39442
-3.16572
-2.93377
-2.69875
-2.46087
-2.22031
-1.97729
-1.73199
-1.48466
-1.23547
-0.984635
-0.732375
-0.478901
-0.224416
0.0308774
0.286781
0.543097
0.799635
1.0562
1.31261
1.56868
1.82422
2.07906
2.33306
2.58606
2.83793
3.08855
3.33777
3.58548
3.83151
4.07574
4.31801
4.5582
4.79617
5.03182
5.26503
5.49572
5.72382
5.94926
6.17196
6.39183
6.6088
6.82275
7.03357
7.24115
7.44538
7.64618
7.84344
8.03706
8.22697
8.41293
8.59541
8.77157
8.95157
9.09354
-7.56493
-7.56406
-7.56653
-7.57528
-7.58718
-7.59961
-7.61178
-7.62335
-7.63417
-7.64422
-7.65348
-7.66189
-7.66937
-7.67584
-7.68122
-7.68544
-7.68843
-7.69016
-7.69058
-7.68968
-7.68743
-7.68383
-7.6789
-7.67265
-7.66501
-7.65595
-7.64558
-7.634
-7.62125
-7.60739
-7.59252
-7.57685
-7.56095
-7.54573
-7.53226
-7.52213
-7.51691
-7.5163
-7.51836
-7.52159
-7.5257
-7.53062
-7.53634
-7.54304
-7.55107
-7.56154
-7.57567
-7.59394
-7.61645
-7.64279
-7.67254
-7.7054
-7.74072
-7.77818
-7.81752
-7.85842
-7.90062
-7.94392
-7.98821
-8.03343
-8.07948
-8.1262
-8.17333
-8.22053
-8.26742
-8.31358
-8.35856
-8.40194
-8.44331
-8.48231
-8.51859
-8.55186
-8.58188
-8.60842
-8.6313
-8.65036
-8.66548
-8.67654
-8.68345
-8.68613
-8.68449
-8.67847
-8.668
-8.65302
-8.63347
-8.60928
-8.58041
-8.5468
-8.50842
-8.46521
-8.41712
-8.36408
-8.30602
-8.24288
-8.17458
-8.10106
-8.02224
-7.93806
-7.84846
-7.7534
-7.65283
-7.54673
-7.43507
-7.31783
-7.19501
-7.06659
-6.93259
-6.79303
-6.64792
-6.49732
-6.34128
-6.17986
-6.01314
-5.84121
-5.66418
-5.48215
-5.29523
-5.10354
-4.90719
-4.70632
-4.50106
-4.29154
-4.07792
-3.86035
-3.639
-3.41404
-3.18565
-2.95401
-2.7193
-2.48171
-2.24145
-1.99871
-1.75369
-1.50661
-1.25766
-1.00705
-0.755019
-0.501758
-0.247477
0.00762705
0.263352
0.519505
0.77589
1.03232
1.28859
1.54454
1.79996
2.05469
2.30858
2.56148
2.81326
3.0638
3.31296
3.5606
3.80658
4.05076
4.29298
4.53313
4.77107
5.00667
5.23985
5.47052
5.69861
5.92405
6.14676
6.36665
6.58364
6.7976
7.00843
7.21601
7.42025
7.62105
7.8183
8.01188
8.20171
8.38744
8.56956
8.74481
8.92427
9.06059
-7.57087
-7.57138
-7.57759
-7.58879
-7.60094
-7.6128
-7.62424
-7.63521
-7.6456
-7.65535
-7.66434
-7.67248
-7.67965
-7.68579
-7.6908
-7.69464
-7.69723
-7.69855
-7.69856
-7.69725
-7.6946
-7.69061
-7.68526
-7.67844
-7.6701
-7.6604
-7.6495
-7.63742
-7.62416
-7.60983
-7.5947
-7.57902
-7.56337
-7.54875
-7.53665
-7.52843
-7.52372
-7.52083
-7.51906
-7.51904
-7.52152
-7.52628
-7.53322
-7.54333
-7.55727
-7.57481
-7.59571
-7.61978
-7.64701
-7.67712
-7.70983
-7.74494
-7.78208
-7.82094
-7.86124
-7.90272
-7.94518
-7.98843
-8.03238
-8.0769
-8.12184
-8.16704
-8.21227
-8.25726
-8.30173
-8.34533
-8.38773
-8.42857
-8.46752
-8.50424
-8.53843
-8.56982
-8.59815
-8.6232
-8.64478
-8.66272
-8.67687
-8.68711
-8.69333
-8.69543
-8.69333
-8.68693
-8.67617
-8.66096
-8.64124
-8.61693
-8.58799
-8.55437
-8.51601
-8.47287
-8.4249
-8.37202
-8.31416
-8.25124
-8.18318
-8.10991
-8.03136
-7.94746
-7.85816
-7.7634
-7.66313
-7.55732
-7.44595
-7.329
-7.20646
-7.07832
-6.94459
-6.80529
-6.66044
-6.51008
-6.35427
-6.19308
-6.02658
-5.85487
-5.67805
-5.49624
-5.30954
-5.11807
-4.92194
-4.72128
-4.51623
-4.30692
-4.0935
-3.87614
-3.65498
-3.43022
-3.20203
-2.97058
-2.73606
-2.49868
-2.25862
-2.01607
-1.77125
-1.52434
-1.27557
-1.02514
-0.773274
-0.52018
-0.266057
-0.0111057
0.244476
0.500494
0.756754
1.01306
1.26923
1.52507
1.78038
2.03501
2.28879
2.54158
2.79326
3.04371
3.29278
3.54035
3.78625
4.03035
4.2725
4.51257
4.75043
4.98597
5.21909
5.4497
5.67775
5.90317
6.12586
6.34576
6.56274
6.77669
6.9875
7.19506
7.39928
7.60005
7.79726
7.99077
8.18046
8.36592
8.54765
8.72197
8.90102
9.03227
-7.57448
-7.57715
-7.58631
-7.59772
-7.60897
-7.62002
-7.63085
-7.64137
-7.65144
-7.66093
-7.66971
-7.67766
-7.68465
-7.6906
-7.69542
-7.69906
-7.70146
-7.70259
-7.70241
-7.70092
-7.6981
-7.69393
-7.68828
-7.68106
-7.67244
-7.66262
-7.65168
-7.63968
-7.62666
-7.61271
-7.59818
-7.58357
-7.56974
-7.55756
-7.54778
-7.5402
-7.5337
-7.52801
-7.52385
-7.52219
-7.52401
-7.52985
-7.53983
-7.55381
-7.57132
-7.59207
-7.61594
-7.64273
-7.67231
-7.70446
-7.7389
-7.77534
-7.81351
-7.85314
-7.89399
-7.93584
-7.97851
-8.02184
-8.06568
-8.10987
-8.15425
-8.19864
-8.24284
-8.28661
-8.3297
-8.37182
-8.41268
-8.45198
-8.48941
-8.52469
-8.55752
-8.58764
-8.6148
-8.63878
-8.65939
-8.67646
-8.68984
-8.69939
-8.70502
-8.70661
-8.70406
-8.6973
-8.68623
-8.67075
-8.65081
-8.62632
-8.59723
-8.56349
-8.52507
-8.48192
-8.43398
-8.38116
-8.32339
-8.26058
-8.19265
-8.11952
-8.04111
-7.95737
-7.86822
-7.77361
-7.67349
-7.56784
-7.45661
-7.33981
-7.2174
-7.0894
-6.95579
-6.81661
-6.67188
-6.52163
-6.36592
-6.20482
-6.0384
-5.86677
-5.69004
-5.50831
-5.3217
-5.13031
-4.93427
-4.73371
-4.52874
-4.31952
-4.1062
-3.88892
-3.66786
-3.44319
-3.2151
-2.98375
-2.74936
-2.5121
-2.27217
-2.02976
-1.78506
-1.53829
-1.28963
-1.03934
-0.78761
-0.53465
-0.280658
-0.0258342
0.229627
0.485529
0.741681
0.997889
1.25396
1.5097
1.76492
2.01944
2.27311
2.52579
2.77736
3.02769
3.27666
3.52412
3.76992
4.01391
4.25595
4.49593
4.7337
4.96915
5.20217
5.43271
5.66069
5.88606
6.10873
6.3286
6.54556
6.75949
6.97027
7.17779
7.38197
7.58269
7.77984
7.97326
8.16279
8.34795
8.52926
8.7027
8.88141
9.00826
-7.57453
-7.57928
-7.58915
-7.59966
-7.61013
-7.62062
-7.63106
-7.6413
-7.6512
-7.66059
-7.66932
-7.67723
-7.68422
-7.69019
-7.69505
-7.69874
-7.70121
-7.70239
-7.70228
-7.70084
-7.69804
-7.69381
-7.68805
-7.6809
-7.67253
-7.66302
-7.65246
-7.64091
-7.6285
-7.61556
-7.60249
-7.58994
-7.57851
-7.56814
-7.55864
-7.54992
-7.54188
-7.53495
-7.53028
-7.52913
-7.5322
-7.53946
-7.5506
-7.56555
-7.58408
-7.60598
-7.63113
-7.6593
-7.69016
-7.72343
-7.7588
-7.79602
-7.83484
-7.87503
-7.91636
-7.95864
-8.00169
-8.04533
-8.08937
-8.13364
-8.17798
-8.22219
-8.26606
-8.30938
-8.3519
-8.39336
-8.43351
-8.47206
-8.50874
-8.54325
-8.57531
-8.60467
-8.63108
-8.65432
-8.67423
-8.69062
-8.70337
-8.71235
-8.71747
-8.71862
-8.7157
-8.70859
-8.69722
-8.68148
-8.6613
-8.63658
-8.60728
-8.57337
-8.53481
-8.49157
-8.44359
-8.39076
-8.33299
-8.27019
-8.20228
-8.12917
-8.0508
-7.96709
-7.87797
-7.78339
-7.6833
-7.57767
-7.46647
-7.34969
-7.22731
-7.09932
-6.96574
-6.82657
-6.68184
-6.5316
-6.3759
-6.21478
-6.04834
-5.8767
-5.69995
-5.51821
-5.33159
-5.14019
-4.94415
-4.74358
-4.53861
-4.32939
-4.11607
-3.8988
-3.67776
-3.45312
-3.22505
-2.99375
-2.75942
-2.52223
-2.28239
-2.04007
-1.79547
-1.54879
-1.30024
-1.05006
-0.798451
-0.54561
-0.291737
-0.0370307
0.218316
0.47411
0.73016
0.986273
1.24225
1.49791
1.75304
2.00745
2.26101
2.51357
2.76501
3.01521
3.26406
3.51139
3.75705
4.0009
4.24282
4.48268
4.72033
4.95566
5.18857
5.41901
5.64692
5.87224
6.09486
6.3147
6.53163
6.74552
6.95625
7.16372
7.36785
7.56851
7.7656
7.9589
8.14825
8.33309
8.514
8.68656
8.86497
8.98813
-7.56843
-7.57436
-7.58363
-7.59346
-7.60361
-7.61391
-7.62424
-7.63448
-7.64446
-7.65399
-7.66292
-7.67108
-7.67834
-7.68461
-7.68978
-7.69379
-7.69655
-7.69804
-7.6982
-7.69701
-7.69441
-7.69036
-7.68488
-7.67809
-7.6701
-7.66104
-7.65103
-7.6402
-7.62891
-7.61756
-7.60629
-7.59518
-7.58434
-7.5738
-7.56362
-7.55406
-7.54567
-7.53922
-7.53547
-7.53505
-7.53838
-7.54561
-7.55678
-7.57188
-7.59079
-7.61333
-7.63923
-7.66811
-7.69963
-7.7335
-7.76946
-7.80725
-7.84664
-7.8874
-7.92933
-7.97221
-8.01583
-8.06001
-8.10457
-8.14933
-8.19409
-8.23865
-8.28279
-8.32626
-8.36884
-8.41028
-8.45033
-8.48871
-8.52516
-8.55938
-8.59112
-8.6201
-8.6461
-8.66889
-8.68831
-8.7042
-8.71645
-8.72497
-8.72968
-8.73046
-8.72719
-8.71978
-8.70812
-8.69213
-8.67169
-8.64673
-8.61718
-8.58302
-8.54425
-8.50087
-8.45278
-8.39987
-8.34202
-8.27915
-8.21116
-8.13799
-8.05955
-7.97577
-7.88658
-7.79193
-7.69177
-7.58608
-7.47481
-7.35797
-7.23552
-7.10748
-6.97383
-6.8346
-6.68982
-6.53953
-6.38376
-6.22258
-6.05606
-5.88433
-5.70751
-5.5257
-5.33901
-5.14756
-4.95145
-4.75081
-4.54579
-4.33651
-4.12314
-3.90584
-3.68476
-3.4601
-3.23203
-3.00074
-2.76644
-2.5293
-2.28952
-2.04729
-1.80277
-1.55618
-1.30774
-1.05767
-0.806187
-0.553473
-0.299729
-0.0451489
0.210072
0.465746
0.72168
0.977683
1.23357
1.48915
1.74421
1.99851
2.25195
2.50438
2.75569
3.00575
3.25444
3.50162
3.74711
3.99078
4.23254
4.47226
4.70979
4.94499
5.17778
5.40811
5.63594
5.8612
6.08378
6.30357
6.52047
6.73431
6.94498
7.1524
7.35647
7.55708
7.75409
7.94728
8.13644
8.32095
8.50146
8.67318
8.85129
8.97145
-7.55337
-7.55944
-7.56826
-7.57828
-7.58875
-7.59931
-7.60989
-7.62043
-7.63077
-7.64074
-7.65014
-7.65883
-7.66664
-7.67347
-7.67921
-7.68376
-7.68707
-7.68907
-7.68972
-7.68898
-7.6868
-7.68318
-7.67815
-7.67185
-7.66445
-7.65614
-7.64709
-7.6374
-7.62716
-7.61652
-7.6056
-7.59446
-7.5832
-7.57199
-7.56125
-7.55151
-7.54333
-7.53719
-7.53366
-7.5333
-7.5366
-7.54384
-7.55518
-7.57061
-7.59
-7.61306
-7.6394
-7.6687
-7.70064
-7.73496
-7.77142
-7.80978
-7.8498
-7.89126
-7.93392
-7.97758
-8.02202
-8.06703
-8.11242
-8.15798
-8.20349
-8.24875
-8.29352
-8.33757
-8.38066
-8.42255
-8.46296
-8.50163
-8.53827
-8.5726
-8.60435
-8.63326
-8.65907
-8.6816
-8.70067
-8.71617
-8.72799
-8.73608
-8.74039
-8.74081
-8.73722
-8.72951
-8.71759
-8.70134
-8.68066
-8.65544
-8.6256
-8.59114
-8.55213
-8.50858
-8.46036
-8.40732
-8.34934
-8.28632
-8.21819
-8.14488
-8.06631
-7.9824
-7.89308
-7.79829
-7.698
-7.59217
-7.48079
-7.36383
-7.24128
-7.11313
-6.97939
-6.84007
-6.69521
-6.54484
-6.38901
-6.22775
-6.06115
-5.88934
-5.71244
-5.53055
-5.34377
-5.15221
-4.95601
-4.75529
-4.55018
-4.34084
-4.1274
-3.91003
-3.68891
-3.46422
-3.23613
-3.00485
-2.77058
-2.5335
-2.29379
-2.05165
-1.80724
-1.56077
-1.31247
-1.06255
-0.811213
-0.558648
-0.305053
-0.0506216
0.204454
0.459985
0.715779
0.971649
1.22743
1.48297
1.73797
1.99219
2.2455
2.4978
2.74895
2.99884
3.24735
3.49432
3.7396
3.98305
4.22461
4.46419
4.7016
4.93666
5.16933
5.39956
5.62731
5.85251
6.07502
6.29477
6.51163
6.72543
6.93604
7.14341
7.34743
7.54799
7.74492
7.93798
8.12694
8.31112
8.49124
8.66214
8.83985
8.95773
-7.52784
-7.53343
-7.54276
-7.5539
-7.56522
-7.57633
-7.58737
-7.59845
-7.60947
-7.62021
-7.63045
-7.63998
-7.64863
-7.65624
-7.66274
-7.66805
-7.6721
-7.6748
-7.67612
-7.67603
-7.67452
-7.67163
-7.66741
-7.66196
-7.65538
-7.6478
-7.6393
-7.62997
-7.61987
-7.60911
-7.59776
-7.58598
-7.57405
-7.56235
-7.55131
-7.5413
-7.53283
-7.5265
-7.52294
-7.52272
-7.52631
-7.53401
-7.54589
-7.56186
-7.58168
-7.60507
-7.63172
-7.66134
-7.69369
-7.72852
-7.76558
-7.80459
-7.84534
-7.88758
-7.93108
-7.97561
-8.02097
-8.06697
-8.11338
-8.15997
-8.2065
-8.25273
-8.29843
-8.34337
-8.38729
-8.42994
-8.47105
-8.51032
-8.54746
-8.58217
-8.61413
-8.64305
-8.66873
-8.69099
-8.70971
-8.72476
-8.73607
-8.74369
-8.74759
-8.74768
-8.74381
-8.73587
-8.72376
-8.70734
-8.68649
-8.66108
-8.63097
-8.5962
-8.55696
-8.51326
-8.46491
-8.41169
-8.35351
-8.29029
-8.22198
-8.1485
-8.06978
-7.9857
-7.89621
-7.80125
-7.70079
-7.59482
-7.48331
-7.36623
-7.24358
-7.11533
-6.9815
-6.8421
-6.69718
-6.54679
-6.39094
-6.22969
-6.06309
-5.89126
-5.71432
-5.53236
-5.3455
-5.15387
-4.95758
-4.75678
-4.55161
-4.3422
-4.12871
-3.9113
-3.69015
-3.46545
-3.23738
-3.00613
-2.77191
-2.53491
-2.29532
-2.05332
-1.80908
-1.5628
-1.31471
-1.065
-0.813868
-0.561507
-0.308111
-0.0538784
0.201003
0.456342
0.711953
0.967657
1.22333
1.47888
1.73391
1.98805
2.24125
2.4934
2.74437
2.99405
3.24234
3.48905
3.73405
3.97725
4.21859
4.45805
4.69538
4.93033
5.16288
5.39302
5.62069
5.84581
6.06824
6.28793
6.50476
6.71852
6.92909
7.13641
7.3404
7.54091
7.73776
7.93069
8.11945
8.3033
8.48298
8.65313
8.83019
8.94643
-7.49199
-7.49754
-7.50826
-7.52113
-7.53356
-7.5453
-7.55698
-7.56897
-7.58112
-7.59303
-7.60439
-7.61498
-7.62464
-7.63323
-7.64067
-7.6469
-7.65184
-7.65544
-7.65766
-7.65846
-7.65785
-7.65582
-7.65242
-7.64768
-7.64167
-7.63444
-7.62606
-7.61658
-7.60608
-7.5947
-7.58263
-7.57017
-7.55759
-7.54522
-7.53348
-7.52291
-7.51412
-7.50775
-7.50445
-7.50474
-7.509
-7.51736
-7.5298
-7.54618
-7.56629
-7.5899
-7.61677
-7.64668
-7.67938
-7.71465
-7.75222
-7.79186
-7.83334
-7.87642
-7.92085
-7.96637
-8.01278
-8.05988
-8.10743
-8.15517
-8.20285
-8.25022
-8.29702
-8.34299
-8.38786
-8.43135
-8.47317
-8.51302
-8.55061
-8.5856
-8.61763
-8.64645
-8.67192
-8.69392
-8.7123
-8.7268
-8.73746
-8.74452
-8.74805
-8.74792
-8.74395
-8.73599
-8.72392
-8.70755
-8.68676
-8.66138
-8.63119
-8.59629
-8.55702
-8.51324
-8.46466
-8.41114
-8.35264
-8.28916
-8.22062
-8.14695
-8.06803
-7.98376
-7.89404
-7.79886
-7.69821
-7.59207
-7.48042
-7.36324
-7.24049
-7.11215
-6.97823
-6.83877
-6.69383
-6.54345
-6.38768
-6.22655
-6.06009
-5.88835
-5.71143
-5.52944
-5.34254
-5.15085
-4.95451
-4.75368
-4.54848
-4.33905
-4.12556
-3.90817
-3.68706
-3.46241
-3.23442
-3.00328
-2.76919
-2.53235
-2.29296
-2.0512
-1.80727
-1.56134
-1.3136
-1.06424
-0.813441
-0.561413
-0.308353
-0.0544544
0.200092
0.455099
0.710393
0.965809
1.22125
1.47674
1.73177
1.98581
2.23886
2.49083
2.74157
2.99097
3.23892
3.48527
3.72993
3.97283
4.21398
4.45341
4.69074
4.92562
5.15809
5.38815
5.61575
5.84077
6.06309
6.28272
6.49956
6.71332
6.92386
7.13117
7.33515
7.53562
7.73238
7.92515
8.11368
8.29721
8.47632
8.64583
8.82193
8.93695
-7.44832
-7.45475
-7.46752
-7.48251
-7.49622
-7.50883
-7.52122
-7.53402
-7.54732
-7.56063
-7.57348
-7.58554
-7.59651
-7.60617
-7.61454
-7.62172
-7.62768
-7.63234
-7.6356
-7.63742
-7.63775
-7.63658
-7.63388
-7.62965
-7.62392
-7.61672
-7.60809
-7.59812
-7.58697
-7.57482
-7.56191
-7.54847
-7.53487
-7.52158
-7.50916
-7.49822
-7.48939
-7.48329
-7.48048
-7.48132
-7.48603
-7.4947
-7.50731
-7.52374
-7.54386
-7.56748
-7.59442
-7.62445
-7.65734
-7.69288
-7.73085
-7.77104
-7.81321
-7.85714
-7.90258
-7.94927
-7.99693
-8.04529
-8.09403
-8.14291
-8.19165
-8.24002
-8.28773
-8.33453
-8.38013
-8.42424
-8.46655
-8.50677
-8.54456
-8.57955
-8.61127
-8.63955
-8.66449
-8.68613
-8.70419
-8.71804
-8.72777
-8.73408
-8.73711
-8.73672
-8.73281
-8.72517
-8.71348
-8.69747
-8.67701
-8.65211
-8.62276
-8.58887
-8.55026
-8.50668
-8.45802
-8.40432
-8.34563
-8.28196
-8.21324
-8.13937
-8.06024
-7.97573
-7.88577
-7.79035
-7.68948
-7.58313
-7.47129
-7.35393
-7.23102
-7.10252
-6.96845
-6.82886
-6.68381
-6.53337
-6.37756
-6.21645
-6.05003
-5.87831
-5.70138
-5.51938
-5.33246
-5.14077
-4.94445
-4.74363
-4.53847
-4.3291
-4.11568
-3.89839
-3.67739
-3.45287
-3.22504
-2.99408
-2.76019
-2.52357
-2.28443
-2.04294
-1.79933
-1.55377
-1.30641
-1.05742
-0.80701
-0.55538
-0.30273
-0.0492549
0.204852
0.459403
0.714213
0.969107
1.22393
1.47856
1.73283
1.98646
2.23921
2.49085
2.74121
2.99012
3.23749
3.48328
3.72744
3.96994
4.21081
4.45015
4.68746
4.92227
5.15466
5.38464
5.61211
5.83698
6.05918
6.2788
6.49574
6.70957
6.92014
7.12749
7.3315
7.53196
7.72864
7.92126
8.10955
8.29276
8.47117
8.64005
8.81502
8.92919
-7.40124
-7.409
-7.42444
-7.4417
-7.45604
-7.46889
-7.48234
-7.49667
-7.51138
-7.526
-7.54017
-7.55362
-7.56603
-7.57698
-7.58644
-7.59467
-7.60177
-7.6076
-7.61201
-7.61492
-7.61622
-7.61584
-7.61373
-7.60985
-7.60419
-7.59678
-7.58771
-7.57707
-7.56502
-7.55176
-7.53761
-7.52295
-7.50823
-7.49404
-7.48097
-7.46963
-7.46063
-7.4545
-7.45166
-7.4524
-7.45692
-7.4653
-7.47755
-7.49363
-7.51344
-7.53682
-7.56361
-7.59362
-7.62666
-7.66251
-7.70094
-7.74174
-7.78466
-7.82945
-7.87583
-7.92354
-7.97227
-8.02168
-8.07145
-8.12129
-8.17093
-8.2201
-8.26851
-8.31589
-8.36195
-8.40642
-8.44902
-8.48943
-8.5273
-8.56209
-8.59296
-8.61971
-8.64297
-8.66351
-8.6815
-8.69643
-8.70767
-8.71484
-8.71798
-8.71746
-8.71349
-8.70587
-8.69424
-8.67828
-8.65791
-8.63327
-8.60455
-8.57144
-8.53331