/*--------------------------------*- C++ -*----------------------------------*\
| =========                 |                                                 |
| \\      /  F ield         | OpenFOAM: The Open Source CFD Toolbox           |
|  \\    /   O peration     | Version:  4.x                                   |
|   \\  /    A nd           | Web:      www.OpenFOAM.org                      |
|    \\/     M anipulation  |                                                 |
\*---------------------------------------------------------------------------*/
FoamFile
{
    version     2.0;
    format      ascii;
    class       surfaceScalarField;
    location    "400";
    object      phi;
}
// * * * * * * * * * * * * * * * * * * * * * * * * * * * * * * * * * * * * * //

dimensions      [0 3 -1 0 0 0 0];

internalField   nonuniform List<scalar> 
24170
(
2.99953e-06
1.34367e-07
2.85626e-06
1.43265e-07
2.7274e-06
1.28859e-07
2.61159e-06
1.15814e-07
2.5081e-06
1.03488e-07
2.41708e-06
9.10134e-08
2.33806e-06
7.90212e-08
2.26993e-06
6.8133e-08
2.21112e-06
5.88084e-08
2.16002e-06
5.10994e-08
2.11556e-06
4.44559e-08
2.077e-06
3.85599e-08
2.04378e-06
3.32257e-08
2.01549e-06
2.82894e-08
1.99196e-06
2.35323e-08
1.9735e-06
1.84569e-08
1.96102e-06
1.24826e-08
2.22468e-10
1.96079e-06
3.51602e-06
7.47877e-08
3.54799e-06
1.11299e-07
3.56388e-06
1.12961e-07
3.56682e-06
1.12875e-07
3.55956e-06
1.10749e-07
3.54499e-06
1.05583e-07
3.52542e-06
9.85904e-08
3.50255e-06
9.10077e-08
3.4779e-06
8.34536e-08
3.45277e-06
7.62303e-08
3.4278e-06
6.94229e-08
3.4034e-06
6.29558e-08
3.37987e-06
5.67552e-08
3.35746e-06
5.07079e-08
3.33636e-06
4.46236e-08
3.31683e-06
3.79941e-08
3.29893e-06
3.03812e-08
1.95877e-08
3.27956e-06
3.83292e-06
5.40618e-08
3.85098e-06
9.32347e-08
3.86583e-06
9.81105e-08
3.87877e-06
9.99395e-08
3.88936e-06
1.00161e-07
3.89747e-06
9.74722e-08
3.90323e-06
9.28253e-08
3.90685e-06
8.73912e-08
3.90861e-06
8.16961e-08
3.90886e-06
7.59777e-08
3.90794e-06
7.03438e-08
3.9061e-06
6.47886e-08
3.90358e-06
5.92772e-08
3.90057e-06
5.3724e-08
3.89721e-06
4.79762e-08
3.89355e-06
4.16561e-08
3.88931e-06
3.46183e-08
2.60469e-08
3.88285e-06
4.21655e-06
4.2069e-08
4.22929e-06
8.04916e-08
4.23939e-06
8.80142e-08
4.24843e-06
9.08996e-08
4.25663e-06
9.19602e-08
4.26389e-06
9.02128e-08
4.27024e-06
8.64724e-08
4.27577e-06
8.18613e-08
4.28055e-06
7.6921e-08
4.28465e-06
7.18718e-08
4.2882e-06
6.67964e-08
4.29127e-06
6.17145e-08
4.29395e-06
5.65956e-08
4.2963e-06
5.13749e-08
4.29835e-06
4.59323e-08
4.29995e-06
4.00502e-08
4.30088e-06
3.36907e-08
2.67097e-08
4.30022e-06
4.646e-06
3.33808e-08
4.65703e-06
6.94537e-08
4.66578e-06
7.92701e-08
4.67356e-06
8.31151e-08
4.68077e-06
8.47501e-08
4.68731e-06
8.36714e-08
4.69319e-06
8.05942e-08
4.6985e-06
7.65526e-08
4.70332e-06
7.21043e-08
4.70772e-06
6.74702e-08
4.71177e-06
6.2744e-08
4.71553e-06
5.79588e-08
4.71902e-06
5.31015e-08
4.72227e-06
4.81255e-08
4.72525e-06
4.2955e-08
4.72781e-06
3.74849e-08
4.72976e-06
3.17419e-08
2.58456e-08
4.73062e-06
5.12132e-06
2.66587e-08
5.13125e-06
5.95191e-08
5.13951e-06
7.10101e-08
5.14698e-06
7.56466e-08
5.15399e-06
7.77397e-08
5.16042e-06
7.72443e-08
5.16625e-06
7.47659e-08
5.17156e-06
7.12367e-08
5.17645e-06
6.72174e-08
5.18098e-06
6.2938e-08
5.18521e-06
5.85114e-08
5.18919e-06
5.39843e-08
5.19292e-06
4.93675e-08
5.19641e-06
4.46359e-08
5.19961e-06
3.97585e-08
5.20239e-06
3.47034e-08
5.20459e-06
2.95414e-08
2.4455e-08
5.20598e-06
5.64628e-06
2.13854e-08
5.65522e-06
5.05783e-08
5.66321e-06
6.30192e-08
5.67059e-06
6.82712e-08
5.67762e-06
7.07093e-08
5.68415e-06
7.07129e-08
5.69013e-06
6.87815e-08
5.69563e-06
6.57374e-08
5.70072e-06
6.2129e-08
5.70546e-06
5.81974e-08
5.7099e-06
5.40695e-08
5.71408e-06
4.98091e-08
5.718e-06
4.54494e-08
5.72164e-06
4.09911e-08
5.72496e-06
3.64394e-08
5.72786e-06
3.18086e-08
5.73021e-06
2.71874e-08
2.27407e-08
5.73192e-06
4.40922e-06
1.82795e-08
4.41501e-06
4.47816e-08
4.42067e-06
5.73635e-08
4.42596e-06
6.29854e-08
4.43102e-06
6.56425e-08
4.4358e-06
6.59315e-08
4.44024e-06
6.4345e-08
4.44435e-06
6.16329e-08
4.44816e-06
5.83143e-08
4.45172e-06
5.4634e-08
4.45506e-06
5.07282e-08
4.4582e-06
4.66733e-08
4.46113e-06
4.25163e-08
4.46385e-06
3.82758e-08
4.46631e-06
3.39759e-08
4.46847e-06
2.96529e-08
4.47026e-06
2.53959e-08
2.13489e-08
4.47165e-06
5.1427e-06
1.54321e-08
5.14844e-06
3.90426e-08
5.15437e-06
5.14417e-08
5.16005e-06
5.73019e-08
5.16557e-06
6.01231e-08
5.17083e-06
6.06714e-08
5.17575e-06
5.94217e-08
5.18034e-06
5.70448e-08
5.18463e-06
5.40286e-08
5.18864e-06
5.0621e-08
5.1924e-06
4.69638e-08
5.19593e-06
4.31457e-08
5.19922e-06
3.92258e-08
5.20226e-06
3.52401e-08
5.205e-06
3.12275e-08
5.20742e-06
2.72385e-08
5.20946e-06
2.33558e-08
1.96994e-08
5.21111e-06
5.99837e-06
1.28552e-08
6.00396e-06
3.34539e-08
6.01008e-06
4.53199e-08
6.01613e-06
5.12548e-08
6.02209e-06
5.41637e-08
6.02783e-06
5.49277e-08
6.03325e-06
5.39979e-08
6.03835e-06
5.19544e-08
6.04312e-06
4.92498e-08
6.04761e-06
4.6134e-08
6.05182e-06
4.27529e-08
6.05576e-06
3.92044e-08
6.05943e-06
3.55583e-08
6.06281e-06
3.18649e-08
6.06586e-06
2.81733e-08
6.06856e-06
2.45406e-08
6.07087e-06
2.10392e-08
1.77645e-08
6.07281e-06
6.99657e-06
1.05495e-08
7.00192e-06
2.8104e-08
7.00817e-06
3.90683e-08
7.01454e-06
4.48855e-08
7.02091e-06
4.7793e-08
7.02713e-06
4.87086e-08
7.03307e-06
4.80653e-08
7.03867e-06
4.63472e-08
7.04396e-06
4.39622e-08
7.04894e-06
4.11572e-08
7.05361e-06
3.80806e-08
7.05798e-06
3.48361e-08
7.06203e-06
3.15014e-08
7.06576e-06
2.81364e-08
7.06914e-06
2.47962e-08
7.07214e-06
2.15379e-08
7.07476e-06
1.84218e-08
1.55223e-08
7.077e-06
8.16107e-06
8.49591e-09
8.16612e-06
2.30516e-08
8.17241e-06
3.27765e-08
8.17905e-06
3.82498e-08
8.18579e-06
4.10488e-08
8.19247e-06
4.20353e-08
8.19891e-06
4.16254e-08
8.20504e-06
4.02134e-08
8.21085e-06
3.81514e-08
8.21633e-06
3.56745e-08
8.22148e-06
3.29307e-08
8.22629e-06
3.00251e-08
8.23076e-06
2.70389e-08
8.23486e-06
2.40368e-08
8.23858e-06
2.10749e-08
8.24191e-06
1.82065e-08
8.24485e-06
1.548e-08
1.29521e-08
8.24742e-06
9.51956e-06
6.65915e-09
9.5243e-06
1.83185e-08
9.53054e-06
2.65331e-08
9.53738e-06
3.14156e-08
9.54445e-06
3.39765e-08
9.55154e-06
3.49399e-08
9.55848e-06
3.46925e-08
9.56514e-06
3.35517e-08
9.57148e-06
3.18068e-08
9.57749e-06
2.967e-08
9.58313e-06
2.72832e-08
9.58841e-06
2.47481e-08
9.59331e-06
2.21442e-08
9.59781e-06
1.95356e-08
9.60191e-06
1.69757e-08
9.6056e-06
1.4511e-08
9.6089e-06
1.21796e-08
1.00247e-08
9.61183e-06
1.11044e-05
4.99628e-09
1.11088e-05
1.38869e-08
1.11149e-05
2.03997e-08
1.11219e-05
2.4449e-08
1.11293e-05
2.66208e-08
1.11367e-05
2.74564e-08
1.11441e-05
2.72887e-08
1.11513e-05
2.63686e-08
1.11582e-05
2.49223e-08
1.11648e-05
2.31287e-08
1.11709e-05
2.11152e-08
1.11767e-05
1.89748e-08
1.11821e-05
1.67802e-08
1.1187e-05
1.45899e-08
1.11915e-05
1.2451e-08
1.11956e-05
1.04025e-08
1.11993e-05
8.4733e-09
6.69639e-09
1.12027e-05
1.29532e-05
3.46136e-09
1.29574e-05
9.69979e-09
1.29634e-05
1.43866e-08
1.29704e-05
1.73878e-08
1.2978e-05
1.90085e-08
1.29859e-05
1.96036e-08
1.29938e-05
1.94267e-08
1.30015e-05
1.86664e-08
1.30089e-05
1.74883e-08
1.3016e-05
1.60304e-08
1.30227e-05
1.43971e-08
1.3029e-05
1.26665e-08
1.30349e-05
1.08997e-08
1.30403e-05
9.14534e-09
1.30453e-05
7.44211e-09
1.30499e-05
5.82049e-09
1.30541e-05
4.30161e-09
2.91026e-09
1.30579e-05
1.51099e-05
2.0034e-09
1.5114e-05
5.65558e-09
1.51199e-05
8.42603e-09
1.51271e-05
1.02013e-08
1.5135e-05
1.11137e-08
1.51432e-05
1.13542e-08
1.51516e-05
1.10808e-08
1.51598e-05
1.0417e-08
1.51679e-05
9.47009e-09
1.51756e-05
8.33274e-09
1.51829e-05
7.07881e-09
1.51898e-05
5.76558e-09
1.51962e-05
4.43809e-09
1.52022e-05
3.13225e-09
1.52078e-05
1.87614e-09
1.52129e-05
6.91439e-10
1.52177e-05
-4.07821e-10
-1.40357e-09
1.5222e-05
1.76259e-05
5.5761e-10
1.763e-05
1.58526e-09
1.76361e-05
2.33206e-09
1.76435e-05
2.7284e-09
1.76518e-05
2.79466e-09
1.76606e-05
2.57831e-09
1.76696e-05
2.13409e-09
1.76785e-05
1.51407e-09
1.76872e-05
7.67174e-10
1.76956e-05
-6.26739e-11
1.77036e-05
-9.37768e-10
1.77112e-05
-1.82689e-09
1.77183e-05
-2.70442e-09
1.7725e-05
-3.54966e-09
1.77312e-05
-4.34638e-09
1.7737e-05
-5.08216e-09
1.77423e-05
-5.74967e-09
-6.33697e-09
1.77473e-05
1.78276e-05
-8.00892e-10
1.78314e-05
-2.26178e-09
1.78372e-05
-3.44522e-09
1.78443e-05
-4.37737e-09
1.78522e-05
-5.13669e-09
1.78606e-05
-5.80808e-09
1.78692e-05
-6.43524e-09
1.78777e-05
-7.03281e-09
1.78861e-05
-7.60682e-09
1.78942e-05
-8.15958e-09
1.79019e-05
-8.68891e-09
1.79093e-05
-9.18924e-09
1.79163e-05
-9.654e-09
1.79228e-05
-1.00771e-08
1.79289e-05
-1.04534e-08
1.79346e-05
-1.07786e-08
1.79399e-05
-1.10509e-08
-1.12634e-08
1.79448e-05
1.58826e-05
-2.06063e-09
1.58861e-05
-5.80012e-09
1.58914e-05
-8.6965e-09
1.58978e-05
-1.07514e-08
1.59048e-05
-1.21803e-08
1.59122e-05
-1.32096e-08
1.59197e-05
-1.3967e-08
1.59272e-05
-1.45215e-08
1.59345e-05
-1.49281e-08
1.59416e-05
-1.52301e-08
1.59484e-05
-1.54552e-08
1.59548e-05
-1.56185e-08
1.59609e-05
-1.57296e-08
1.59666e-05
-1.5794e-08
1.5972e-05
-1.58155e-08
1.5977e-05
-1.57957e-08
1.59817e-05
-1.57371e-08
-1.56357e-08
1.5986e-05
1.41499e-05
-3.34111e-09
1.41535e-05
-9.33843e-09
1.41586e-05
-1.38084e-08
1.41646e-05
-1.67843e-08
1.41712e-05
-1.87145e-08
1.41779e-05
-1.99911e-08
1.41848e-05
-2.08053e-08
1.41915e-05
-2.12705e-08
1.41981e-05
-2.14892e-08
1.42044e-05
-2.15417e-08
1.42104e-05
-2.14789e-08
1.42161e-05
-2.13325e-08
1.42215e-05
-2.11245e-08
1.42266e-05
-2.08704e-08
1.42314e-05
-2.05804e-08
1.42358e-05
-2.02608e-08
1.424e-05
-1.99162e-08
-1.95448e-08
1.42439e-05
1.26064e-05
-4.74713e-09
1.26102e-05
-1.3118e-08
1.26154e-05
-1.90301e-08
1.26213e-05
-2.26932e-08
1.26276e-05
-2.49492e-08
1.26339e-05
-2.63609e-08
1.26403e-05
-2.71492e-08
1.26465e-05
-2.74667e-08
1.26525e-05
-2.74666e-08
1.26582e-05
-2.72604e-08
1.26636e-05
-2.69147e-08
1.26688e-05
-2.6473e-08
1.26736e-05
-2.59676e-08
1.26782e-05
-2.54221e-08
1.26824e-05
-2.48516e-08
1.26864e-05
-2.42651e-08
1.26902e-05
-2.36686e-08
-2.30611e-08
1.26937e-05
1.12315e-05
-6.39704e-09
1.12357e-05
-1.73592e-08
1.12412e-05
-2.45184e-08
1.12471e-05
-2.85854e-08
1.12531e-05
-3.09938e-08
1.12592e-05
-3.2434e-08
1.12652e-05
-3.31097e-08
1.12709e-05
-3.3221e-08
1.12764e-05
-3.29729e-08
1.12816e-05
-3.24978e-08
1.12866e-05
-3.18701e-08
1.12913e-05
-3.1142e-08
1.12957e-05
-3.03548e-08
1.12998e-05
-2.95381e-08
1.13036e-05
-2.87108e-08
1.13073e-05
-2.78837e-08
1.13106e-05
-2.70632e-08
-2.62473e-08
1.13138e-05
1.00067e-05
-8.44636e-09
1.00116e-05
-2.22775e-08
1.00174e-05
-3.03511e-08
1.00233e-05
-3.44962e-08
1.00292e-05
-3.69049e-08
1.00351e-05
-3.82722e-08
1.00407e-05
-3.87524e-08
1.00461e-05
-3.86088e-08
1.00512e-05
-3.80931e-08
1.00561e-05
-3.7344e-08
1.00606e-05
-3.64361e-08
1.00649e-05
-3.54291e-08
1.00689e-05
-3.43717e-08
1.00727e-05
-3.32993e-08
1.00762e-05
-3.22335e-08
1.00795e-05
-3.11867e-08
1.00826e-05
-3.01643e-08
-2.91623e-08
1.00855e-05
8.91576e-06
-1.11059e-08
8.92157e-06
-2.809e-08
8.92775e-06
-3.65289e-08
8.93368e-06
-4.0429e-08
8.9395e-06
-4.27251e-08
8.94515e-06
-4.39277e-08
8.95054e-06
-4.41408e-08
8.95565e-06
-4.37106e-08
8.96047e-06
-4.29185e-08
8.96502e-06
-4.18938e-08
8.96929e-06
-4.07077e-08
8.97329e-06
-3.94264e-08
8.97702e-06
-3.81057e-08
8.98051e-06
-3.67865e-08
8.98377e-06
-3.54938e-08
8.98682e-06
-3.42412e-08
8.98969e-06
-3.30337e-08
-3.1863e-08
8.99239e-06
7.94421e-06
-1.46448e-08
7.95114e-06
-3.50278e-08
7.95764e-06
-4.30206e-08
7.96361e-06
-4.64046e-08
7.96942e-06
-4.8535e-08
7.97499e-06
-4.95018e-08
7.98025e-06
-4.93953e-08
7.98519e-06
-4.86545e-08
7.98985e-06
-4.7574e-08
7.99422e-06
-4.62652e-08
7.9983e-06
-4.47937e-08
8.00211e-06
-4.32325e-08
8.00565e-06
-4.1644e-08
8.00894e-06
-4.00752e-08
8.012e-06
-3.85558e-08
8.01486e-06
-3.71015e-08
8.01754e-06
-3.57164e-08
-3.438e-08
8.02006e-06
7.07913e-06
-1.94463e-08
7.08746e-06
-4.33577e-08
7.09439e-06
-4.99496e-08
7.10062e-06
-5.26358e-08
7.10665e-06
-5.45697e-08
7.11237e-06
-5.52195e-08
7.11771e-06
-5.47303e-08
7.12269e-06
-5.36405e-08
7.12736e-06
-5.22412e-08
7.13171e-06
-5.06177e-08
7.13575e-06
-4.88326e-08
7.13948e-06
-4.69642e-08
7.14292e-06
-4.5083e-08
7.14608e-06
-4.32416e-08
7.14901e-06
-4.14771e-08
7.15171e-06
-3.98089e-08
7.15424e-06
-3.82441e-08
-3.67564e-08
7.15662e-06
6.30967e-06
-2.6607e-08
6.31978e-06
-5.34622e-08
6.32783e-06
-5.80072e-08
6.33512e-06
-5.99238e-08
6.34204e-06
-6.14917e-08
6.34843e-06
-6.16097e-08
6.35428e-06
-6.05839e-08
6.35968e-06
-5.90342e-08
6.36465e-06
-5.72184e-08
6.36922e-06
-5.51872e-08
6.37339e-06
-5.30005e-08
6.37717e-06
-5.07406e-08
6.38057e-06
-4.84862e-08
6.38362e-06
-4.62969e-08
6.38637e-06
-4.42184e-08
6.38884e-06
-4.22826e-08
6.39109e-06
-4.04925e-08
-3.87941e-08
6.39312e-06
5.62887e-06
-4.0576e-08
5.64293e-06
-6.75215e-08
5.65465e-06
-6.97376e-08
5.66538e-06
-7.06478e-08
5.67499e-06
-7.11029e-08
5.68338e-06
-7.00017e-08
5.69068e-06
-6.78906e-08
5.69705e-06
-6.53999e-08
5.70255e-06
-6.27174e-08
5.70722e-06
-5.98577e-08
5.7111e-06
-5.68804e-08
5.71423e-06
-5.38756e-08
5.71667e-06
-5.09264e-08
5.71848e-06
-4.81078e-08
5.71974e-06
-4.54756e-08
5.72055e-06
-4.30909e-08
5.72102e-06
-4.09632e-08
-3.92193e-08
5.72144e-06
5.04702e-06
-8.52858e-08
5.07626e-06
-9.6766e-08
5.09705e-06
-9.05324e-08
5.11146e-06
-8.5056e-08
5.12048e-06
-8.01297e-08
5.12508e-06
-7.45994e-08
5.1261e-06
-6.8916e-08
5.12425e-06
-6.35466e-08
5.12003e-06
-5.85031e-08
5.11388e-06
-5.3704e-08
5.10615e-06
-4.91524e-08
5.09717e-06
-4.48934e-08
5.08721e-06
-4.09649e-08
5.0765e-06
-3.74058e-08
5.06535e-06
-3.43254e-08
5.05407e-06
-3.18113e-08
5.04291e-06
-2.97988e-08
-2.86147e-08
5.0323e-06
4.37126e-06
4.2745e-06
4.18396e-06
4.09891e-06
4.01878e-06
3.94418e-06
3.87526e-06
3.81172e-06
3.75321e-06
3.69951e-06
3.65036e-06
3.60546e-06
3.5645e-06
3.52709e-06
3.49277e-06
3.46096e-06
3.43116e-06
3.40254e-06
-1.03674e-08
1.03643e-08
-2.79768e-08
1.76028e-08
-4.77975e-08
1.98159e-08
-6.66062e-08
1.88031e-08
-7.95565e-08
1.29464e-08
-7.88426e-08
-7.19668e-10
-5.91493e-08
-1.96951e-08
-2.14916e-08
-3.76628e-08
2.96085e-08
-5.11003e-08
8.90073e-08
-5.94021e-08
1.51154e-07
-6.21454e-08
2.11566e-07
-6.04131e-08
2.67297e-07
-5.57292e-08
3.1646e-07
-4.91637e-08
3.57969e-07
-4.1508e-08
3.91265e-07
-3.32958e-08
4.16066e-07
-2.47988e-08
4.32167e-07
-1.61009e-08
4.39299e-07
-7.13053e-09
4.37024e-07
2.27562e-09
4.25051e-07
1.19753e-08
4.03509e-07
2.15432e-08
3.72914e-07
3.05968e-08
3.34139e-07
3.87769e-08
2.88489e-07
4.56526e-08
2.37806e-07
5.06852e-08
1.84533e-07
5.32759e-08
1.3168e-07
5.28552e-08
8.26584e-08
4.90252e-08
4.08612e-08
4.18008e-08
8.85854e-09
3.20063e-08
-1.27156e-08
2.15778e-08
-2.58577e-08
1.31452e-08
-3.3507e-08
7.65223e-09
-3.85109e-08
5.0065e-09
-4.29435e-08
4.4351e-09
-4.66867e-08
3.7457e-09
-4.6057e-08
-6.27264e-10
-3.65036e-08
-9.55125e-09
-1.52488e-08
-2.12526e-08
1.75199e-08
-3.27669e-08
5.77577e-08
-4.02361e-08
9.84257e-08
-4.06666e-08
1.33214e-07
-3.47867e-08
1.58225e-07
-2.50104e-08
1.7223e-07
-1.40044e-08
1.75718e-07
-3.4866e-09
1.71291e-07
4.42769e-09
1.63788e-07
7.50422e-09
1.57364e-07
6.42575e-09
1.55464e-07
1.90085e-09
1.63846e-07
-8.37975e-09
1.78358e-07
-1.45108e-08
1.78465e-07
-1.04856e-10
1.51157e-07
2.73099e-08
8.6894e-08
6.42643e-08
-1.98551e-08
1.06751e-07
-1.64033e-07
1.44178e-07
-3.3375e-07
1.69718e-07
-5.18902e-07
1.85151e-07
-7.10617e-07
1.91716e-07
-9.01327e-07
1.90709e-07
-1.0849e-06
1.83575e-07
-1.2571e-06
1.72192e-07
-1.41551e-06
1.58411e-07
-1.55911e-06
1.43607e-07
-1.68802e-06
1.28911e-07
-1.80308e-06
1.15055e-07
-1.90551e-06
1.0243e-07
-1.99673e-06
9.12173e-08
-2.07816e-06
8.14351e-08
-2.15116e-06
7.30048e-08
-2.21695e-06
6.57902e-08
-2.27659e-06
5.96312e-08
-2.33095e-06
5.43654e-08
-2.38079e-06
4.98408e-08
-2.42671e-06
4.5926e-08
-2.46922e-06
4.25065e-08
-2.50871e-06
3.9489e-08
-2.5455e-06
3.67942e-08
-2.57986e-06
3.43587e-08
-2.61199e-06
3.21312e-08
-2.64206e-06
3.00711e-08
-2.6702e-06
2.81452e-08
-2.69653e-06
2.63275e-08
-2.72112e-06
2.45966e-08
-2.74406e-06
2.29349e-08
-2.76539e-06
2.13278e-08
-2.78515e-06
1.97623e-08
-2.80337e-06
1.82274e-08
-2.82008e-06
1.67125e-08
-2.83529e-06
1.52075e-08
-2.84899e-06
1.37023e-08
-2.86118e-06
1.21864e-08
-2.87182e-06
1.06484e-08
-2.8809e-06
9.07706e-09
-2.88835e-06
7.46105e-09
-2.89414e-06
5.78891e-09
-2.89819e-06
4.04777e-09
-2.90042e-06
2.23839e-09
-2.90085e-06
4.28718e-10
-2.89965e-06
-1.19661e-09
-2.89704e-06
-2.60401e-09
-2.89311e-06
-3.92962e-09
-2.88788e-06
-5.23237e-09
-2.88135e-06
-6.52903e-09
-2.87352e-06
-7.82441e-09
-2.86441e-06
-9.1185e-09
-2.85399e-06
-1.04107e-08
-2.8423e-06
-1.16991e-08
-2.82931e-06
-1.29828e-08
-2.81505e-06
-1.42596e-08
-2.79953e-06
-1.55287e-08
-2.78274e-06
-1.67886e-08
-2.7647e-06
-1.80386e-08
-2.74542e-06
-1.92776e-08
-2.72492e-06
-2.05053e-08
-2.7032e-06
-2.17206e-08
-2.68028e-06
-2.29233e-08
-2.65618e-06
-2.4112e-08
-2.63089e-06
-2.52864e-08
-2.60445e-06
-2.64448e-08
-2.57687e-06
-2.75866e-08
-2.54817e-06
-2.87104e-08
-2.51836e-06
-2.98154e-08
-2.48747e-06
-3.08995e-08
-2.45552e-06
-3.19591e-08
-2.42254e-06
-3.29896e-08
-2.38855e-06
-3.39902e-08
-2.35361e-06
-3.49538e-08
-2.31774e-06
-3.58713e-08
-2.28102e-06
-3.6737e-08
-2.24344e-06
-3.75896e-08
-2.20494e-06
-3.8501e-08
-2.16556e-06
-3.93992e-08
-2.12535e-06
-4.02217e-08
-2.08435e-06
-4.10075e-08
-2.0426e-06
-4.17586e-08
-2.00014e-06
-4.24786e-08
-1.95699e-06
-4.31674e-08
-1.91318e-06
-4.3823e-08
-1.86876e-06
-4.44457e-08
-1.82374e-06
-4.50322e-08
-1.77816e-06
-4.55848e-08
-1.73206e-06
-4.61016e-08
-1.68547e-06
-4.65869e-08
-1.63841e-06
-4.70414e-08
-1.59091e-06
-4.74719e-08
-1.543e-06
-4.78825e-08
-1.49468e-06
-4.82784e-08
-1.44599e-06
-4.86618e-08
-1.39692e-06
-4.90311e-08
-1.3475e-06
-4.93894e-08
-1.29775e-06
-4.97223e-08
-1.24768e-06
-5.00383e-08
-1.19732e-06
-5.03241e-08
-1.1467e-06
-5.05894e-08
-1.09585e-06
-5.08244e-08
-1.04477e-06
-5.10441e-08
-9.935e-07
-5.12448e-08
-9.42031e-07
-5.14413e-08
-8.90357e-07
-5.16462e-08
-8.38468e-07
-5.18624e-08
-7.86341e-07
-5.21004e-08
-7.33959e-07
-5.23577e-08
-6.81304e-07
-5.26307e-08
-6.28368e-07
-5.29129e-08
-5.75149e-07
-5.31955e-08
-5.21656e-07
-5.34724e-08
-4.67897e-07
-5.37387e-08
-4.13888e-07
-5.39899e-08
-3.59655e-07
-5.4215e-08
-3.05247e-07
-5.43924e-08
-2.50755e-07
-5.44761e-08
-1.96364e-07
-5.43781e-08
-1.42456e-07
-5.38955e-08
-8.94169e-08
-5.30301e-08
-3.89662e-08
-5.04416e-08
8.87705e-09
-4.7835e-08
-2.60277e-08
3.49171e-08
-4.12891e-09
1.44875e-08
-1.23371e-08
2.57986e-08
-1.85094e-08
2.59791e-08
-1.5708e-08
1.59887e-08
4.03812e-09
-6.80765e-09
4.12758e-08
-3.7965e-08
9.26484e-08
-7.10695e-08
1.52802e-07
-9.78192e-08
2.15821e-07
-1.14119e-07
2.7663e-07
-1.20212e-07
3.3252e-07
-1.18035e-07
3.82171e-07
-1.10064e-07
4.25055e-07
-9.86131e-08
4.61237e-07
-8.5346e-08
4.91017e-07
-7.12861e-08
5.14755e-07
-5.70335e-08
5.32844e-07
-4.28866e-08
5.45708e-07
-2.89648e-08
5.53875e-07
-1.52959e-08
5.57959e-07
-1.80783e-09
5.58233e-07
1.17028e-08
5.54337e-07
2.54405e-08
5.45527e-07
3.94089e-08
5.30894e-07
5.34106e-08
5.0952e-07
6.70289e-08
4.80624e-07
7.95825e-08
4.43777e-07
9.01253e-08
3.99107e-07
9.75271e-08
3.47452e-07
1.00681e-07
2.90454e-07
9.88007e-08
2.30684e-07
9.17792e-08
1.71834e-07
8.04296e-08
1.18879e-07
6.61035e-08
7.63355e-08
5.01989e-08
4.7135e-08
3.42108e-08
3.243e-08
1.91449e-08
3.20891e-08
4.0911e-09
4.40683e-08
-1.26026e-08
6.64541e-08
-3.19345e-08
9.80856e-08
-5.28821e-08
1.34478e-07
-6.91579e-08
1.68209e-07
-7.39654e-08
1.94332e-07
-6.67888e-08
2.10674e-07
-5.11282e-08
2.1689e-07
-3.12257e-08
2.14714e-07
-1.18272e-08
2.05871e-07
5.35711e-09
1.92391e-07
1.79088e-08
1.79012e-07
2.08846e-08
1.60913e-07
2.45269e-08
1.20485e-07
4.233e-08
3.72777e-08
7.48298e-08
-1.01494e-07
1.24263e-07
-2.83494e-07
1.81896e-07
-4.89414e-07
2.33231e-07
-7.03312e-07
2.78162e-07
-9.13296e-07
3.16736e-07
-1.11362e-06
3.44503e-07
-1.30144e-06
3.57538e-07
-1.47287e-06
3.5658e-07
-1.62536e-06
3.44211e-07
-1.75811e-06
3.23457e-07
-1.87198e-06
2.9744e-07
-1.96882e-06
2.69037e-07
-2.05101e-06
2.40596e-07
-2.12111e-06
2.13713e-07
-2.18151e-06
1.89309e-07
-2.23423e-06
1.67775e-07
-2.28093e-06
1.49127e-07
-2.32289e-06
1.33178e-07
-2.36108e-06
1.19625e-07
-2.3962e-06
1.08129e-07
-2.42877e-06
9.83569e-08
-2.45914e-06
9.0004e-08
-2.48758e-06
8.28065e-08
-2.51428e-06
7.65439e-08
-2.53939e-06
7.10341e-08
-2.56301e-06
6.6126e-08
-2.58522e-06
6.16991e-08
-2.60608e-06
5.76566e-08
-2.62564e-06
5.39219e-08
-2.64394e-06
5.04338e-08
-2.66102e-06
4.71437e-08
-2.67688e-06
4.40126e-08
-2.69156e-06
4.10091e-08
-2.70507e-06
3.81078e-08
-2.71743e-06
3.52877e-08
-2.72863e-06
3.25309e-08
-2.73869e-06
2.98222e-08
-2.74761e-06
2.71482e-08
-2.75539e-06
2.4497e-08
-2.76204e-06
2.18579e-08
-2.76756e-06
1.92219e-08
-2.77195e-06
1.65813e-08
-2.77523e-06
1.39305e-08
-2.77742e-06
1.12669e-08
-2.77855e-06
8.59081e-09
-2.77866e-06
5.907e-09
-2.77784e-06
3.22801e-09
-2.77618e-06
5.81471e-10
-2.77375e-06
-1.99989e-09
-2.77041e-06
-4.53965e-09
-2.76592e-06
-7.08675e-09
-2.76021e-06
-9.64416e-09
-2.75323e-06
-1.22042e-08
-2.745e-06
-1.47672e-08
-2.73549e-06
-1.73323e-08
-2.72471e-06
-1.98976e-08
-2.71266e-06
-2.24604e-08
-2.69934e-06
-2.50172e-08
-2.68476e-06
-2.7565e-08
-2.66892e-06
-3.01003e-08
-2.65183e-06
-3.26204e-08
-2.63349e-06
-3.51226e-08
-2.61393e-06
-3.7605e-08
-2.59314e-06
-4.00658e-08
-2.57114e-06
-4.25038e-08
-2.54795e-06
-4.49175e-08
-2.52357e-06
-4.73056e-08
-2.49802e-06
-4.96661e-08
-2.47131e-06
-5.19973e-08
-2.44346e-06
-5.42965e-08
-2.41449e-06
-5.65615e-08
-2.38442e-06
-5.87895e-08
-2.35326e-06
-6.09779e-08
-2.32104e-06
-6.31238e-08
-2.28778e-06
-6.52235e-08
-2.2535e-06
-6.72737e-08
-2.21823e-06
-6.92734e-08
-2.18197e-06
-7.12197e-08
-2.14473e-06
-7.31087e-08
-2.10654e-06
-7.49398e-08
-2.0674e-06
-7.67317e-08
-2.02741e-06
-7.85026e-08
-1.9866e-06
-8.02192e-08
-1.94497e-06
-8.1857e-08
-1.90256e-06
-8.34256e-08
-1.85939e-06
-8.49287e-08
-1.81551e-06
-8.63694e-08
-1.77095e-06
-8.77478e-08
-1.72572e-06
-8.90627e-08
-1.67987e-06
-9.03123e-08
-1.63341e-06
-9.14942e-08
-1.5864e-06
-9.26082e-08
-1.53885e-06
-9.36539e-08
-1.49079e-06
-9.4634e-08
-1.44227e-06
-9.55528e-08
-1.3933e-06
-9.64188e-08
-1.34392e-06
-9.72422e-08
-1.29415e-06
-9.8032e-08
-1.24399e-06
-9.87945e-08
-1.19347e-06
-9.95287e-08
-1.1426e-06
-1.00237e-07
-1.09139e-06
-1.00906e-07
-1.03988e-06
-1.01536e-07
-9.88061e-07
-1.02117e-07
-9.35978e-07
-1.02653e-07
-8.83642e-07
-1.0314e-07
-8.31078e-07
-1.03589e-07
-7.78297e-07
-1.04007e-07
-7.25309e-07
-1.04411e-07
-6.72112e-07
-1.04826e-07
-6.18693e-07
-1.05264e-07
-5.65037e-07
-1.0574e-07
-5.11123e-07
-1.06256e-07
-4.56935e-07
-1.06804e-07
-4.02461e-07
-1.07373e-07
-3.47697e-07
-1.07947e-07
-2.92644e-07
-1.08512e-07
-2.37311e-07
-1.09061e-07
-1.81707e-07
-1.09583e-07
-1.25852e-07
-1.10061e-07
-6.97815e-08
-1.10454e-07
-1.35755e-08
-1.10675e-07
4.26358e-08
-1.10583e-07
9.86284e-08
-1.09884e-07
1.53863e-07
-1.08261e-07
2.08028e-07
-1.04605e-07
2.57737e-07
-9.75422e-08
-7.45671e-08
3.06278e-07
1.37206e-09
1.311e-08
4.33267e-09
2.2826e-08
1.55776e-08
1.47251e-08
4.57239e-08
-1.41655e-08
9.74273e-08
-5.85143e-08
1.64067e-07
-1.04608e-07
2.33335e-07
-1.40338e-07
2.96426e-07
-1.60912e-07
3.49605e-07
-1.67298e-07
3.9246e-07
-1.63069e-07
4.2642e-07
-1.51994e-07
4.5338e-07
-1.37025e-07
4.74907e-07
-1.20139e-07
4.92098e-07
-1.02537e-07
5.05683e-07
-8.48709e-08
5.16138e-07
-6.74874e-08
5.23784e-07
-5.05324e-08
5.28862e-07
-3.40416e-08
5.3157e-07
-1.80033e-08
5.32143e-07
-2.37972e-09
5.30938e-07
1.29088e-08
5.28368e-07
2.80123e-08
5.24706e-07
4.30717e-08
5.19958e-07
5.81601e-08
5.13757e-07
7.32312e-08
5.05294e-07
8.80473e-08
4.93316e-07
1.02104e-07
4.76266e-07
1.14579e-07
4.52613e-07
1.24336e-07
4.21354e-07
1.30061e-07
3.82631e-07
1.30504e-07
3.3826e-07
1.24802e-07
2.91676e-07
1.12689e-07
2.4726e-07
9.4617e-08
2.09711e-07
7.1761e-08
1.83289e-07
4.55681e-08
1.70351e-07
1.7031e-08
1.70623e-07
-1.2873e-08
1.82224e-07
-4.35336e-08
1.9878e-07
-6.94375e-08
2.11322e-07
-8.16993e-08
2.13915e-07
-7.65576e-08
2.06033e-07
-5.89059e-08
1.89074e-07
-3.41682e-08
1.64205e-07
-6.35584e-09
1.33557e-07
1.88207e-08
9.53571e-08
4.35583e-08
3.88335e-08
7.44334e-08
-5.16403e-08
1.1136e-07
-1.86401e-07
1.59289e-07
-3.6158e-07
2.17509e-07
-5.64786e-07
2.78037e-07
-7.76482e-07
3.35959e-07
-9.81065e-07
3.86479e-07
-1.17264e-06
4.24803e-07
-1.34467e-06
4.50198e-07
-1.49094e-06
4.63002e-07
-1.60971e-06
4.63279e-07
-1.7041e-06
4.51927e-07
-1.77855e-06
4.31023e-07
-1.83768e-06
4.03345e-07
-1.88595e-06
3.71732e-07
-1.92717e-06
3.38652e-07
-1.9642e-06
3.06066e-07
-1.99892e-06
2.75319e-07
-2.03242e-06
2.47216e-07
-2.06522e-06
2.22105e-07
-2.09747e-06
2.0002e-07
-2.12913e-06
1.80789e-07
-2.16009e-06
1.64138e-07
-2.19021e-06
1.49748e-07
-2.21937e-06
1.37292e-07
-2.24748e-06
1.26464e-07
-2.27446e-06
1.1699e-07
-2.30029e-06
1.0863e-07
-2.32493e-06
1.01186e-07
-2.34838e-06
9.44872e-08
-2.37065e-06
8.83933e-08
-2.39174e-06
8.279e-08
-2.41167e-06
7.75835e-08
-2.43044e-06
7.26984e-08
-2.44808e-06
6.80734e-08
-2.46459e-06
6.36592e-08
-2.48e-06
5.94156e-08
-2.4943e-06
5.53102e-08
-2.50751e-06
5.13164e-08
-2.51963e-06
4.74118e-08
-2.53068e-06
4.35776e-08
-2.54065e-06
3.97973e-08
-2.54956e-06
3.60562e-08
-2.5574e-06
3.23413e-08
-2.56418e-06
2.86413e-08
-2.56991e-06
2.49471e-08
-2.57458e-06
2.12515e-08
-2.57819e-06
1.75504e-08
-2.58077e-06
1.38425e-08
-2.58231e-06
1.01296e-08
-2.58281e-06
6.41586e-09
-2.58229e-06
2.70849e-09
-2.58072e-06
-9.84454e-10
-2.57806e-06
-4.6657e-09
-2.57423e-06
-8.36143e-09
-2.56923e-06
-1.2091e-08
-2.56303e-06
-1.58476e-08
-2.55561e-06
-1.96215e-08
-2.54697e-06
-2.34078e-08
-2.5371e-06
-2.72018e-08
-2.52599e-06
-3.09991e-08
-2.51366e-06
-3.47948e-08
-2.50009e-06
-3.85838e-08
-2.4853e-06
-4.23608e-08
-2.46928e-06
-4.61208e-08
-2.45204e-06
-4.9859e-08
-2.43359e-06
-5.35713e-08
-2.41394e-06
-5.72546e-08
-2.3931e-06
-6.09062e-08
-2.37108e-06
-6.45241e-08
-2.3479e-06
-6.81063e-08
-2.32355e-06
-7.16507e-08
-2.29807e-06
-7.51547e-08
-2.27145e-06
-7.8615e-08
-2.24372e-06
-8.20283e-08
-2.2149e-06
-8.53906e-08
-2.18499e-06
-8.86979e-08
-2.15403e-06
-9.19461e-08
-2.12202e-06
-9.51311e-08
-2.089e-06
-9.82489e-08
-2.05498e-06
-1.01296e-07
-2.01999e-06
-1.04273e-07
-1.98403e-06
-1.07176e-07
-1.94714e-06
-1.10003e-07
-1.90933e-06
-1.12754e-07
-1.87063e-06
-1.15436e-07
-1.83109e-06
-1.18048e-07
-1.79075e-06
-1.20573e-07
-1.74961e-06
-1.23002e-07
-1.7077e-06
-1.25337e-07
-1.66506e-06
-1.27578e-07
-1.62171e-06
-1.29727e-07
-1.57768e-06
-1.31784e-07
-1.533e-06
-1.33749e-07
-1.4877e-06
-1.35619e-07
-1.44181e-06
-1.37392e-07
-1.39536e-06
-1.39066e-07
-1.34837e-06
-1.40641e-07
-1.30088e-06
-1.42118e-07
-1.25292e-06
-1.43503e-07
-1.20452e-06
-1.44806e-07
-1.15571e-06
-1.46041e-07
-1.10651e-06
-1.4722e-07
-1.05694e-06
-1.48355e-07
-1.00701e-06
-1.49447e-07
-9.56736e-07
-1.50499e-07
-9.06134e-07
-1.51498e-07
-8.55221e-07
-1.52439e-07
-8.04012e-07
-1.53317e-07
-7.5253e-07
-1.54127e-07
-7.00789e-07
-1.54873e-07
-6.4881e-07
-1.5556e-07
-5.96603e-07
-1.56206e-07
-5.4418e-07
-1.56827e-07
-4.9154e-07
-1.57459e-07
-4.38676e-07
-1.58121e-07
-3.85573e-07
-1.58837e-07
-3.32213e-07
-1.59609e-07
-2.7858e-07
-1.60431e-07
-2.24662e-07
-1.61286e-07
-1.70451e-07
-1.62152e-07
-1.15948e-07
-1.6301e-07
-6.11555e-08
-1.63848e-07
-6.08223e-09
-1.64652e-07
4.92582e-08
-1.65397e-07
1.04838e-07
-1.6603e-07
1.60605e-07
-1.66438e-07
2.16455e-07
-1.66429e-07
2.72219e-07
-1.65645e-07
3.27573e-07
-1.63612e-07
3.82217e-07
-1.59245e-07
4.35214e-07
-1.50536e-07
-1.29027e-07
4.89679e-07
-9.01856e-10
1.40064e-08
8.33378e-09
1.35795e-08
4.42784e-08
-2.12255e-08
1.10261e-07
-8.01519e-08
1.90183e-07
-1.38438e-07
2.65222e-07
-1.79649e-07
3.24911e-07
-2.00027e-07
3.67455e-07
-2.03457e-07
3.95941e-07
-1.95783e-07
4.14725e-07
-1.81853e-07
4.27518e-07
-1.64787e-07
4.3681e-07
-1.46316e-07
4.44007e-07
-1.27336e-07
4.49778e-07
-1.08308e-07
4.5438e-07
-8.94722e-08
4.57855e-07
-7.09624e-08
4.60178e-07
-5.28538e-08
4.61321e-07
-3.51843e-08
4.6129e-07
-1.79707e-08
4.60128e-07
-1.21696e-09
4.57941e-07
1.50967e-08
4.5494e-07
3.10146e-08
4.51424e-07
4.65887e-08
4.4772e-07
6.18655e-08
4.44093e-07
7.68597e-08
4.40625e-07
9.15167e-08
4.37078e-07
1.05653e-07
4.32765e-07
1.18893e-07
4.26525e-07
1.30577e-07
4.16912e-07
1.39675e-07
4.02609e-07
1.44808e-07
3.82978e-07
1.44434e-07
3.58494e-07
1.37174e-07
3.30951e-07
1.22161e-07
3.03298e-07
9.9415e-08
2.78988e-07
6.98795e-08
2.60697e-07
3.53234e-08
2.49337e-07
-1.51172e-09
2.40871e-07
-3.50668e-08
2.27128e-07
-5.5694e-08
2.0257e-07
-5.71405e-08
1.66837e-07
-4.0825e-08
1.21386e-07
-1.34541e-08
6.64645e-08
2.07539e-08
-2.08063e-09
6.21899e-08
-9.31738e-08
1.09914e-07
-2.12725e-07
1.6311e-07
-3.6112e-07
2.22829e-07
-5.36408e-07
2.86648e-07
-7.27815e-07
3.50696e-07
-9.20456e-07
4.1015e-07
-1.10286e-06
4.60436e-07
-1.26522e-06
4.98326e-07
-1.40141e-06
5.22663e-07
-1.51072e-06
5.34123e-07
-1.59465e-06
5.34123e-07
-1.65582e-06
5.2417e-07
-1.69866e-06
5.06118e-07
-1.72848e-06
4.81747e-07
-1.75045e-06
4.52992e-07
-1.76878e-06
4.21683e-07
-1.78649e-06
3.89439e-07
-1.8054e-06
3.57559e-07
-1.82636e-06
3.27026e-07
-1.84953e-06
2.98494e-07
-1.87465e-06
2.72337e-07
-1.90125e-06
2.48701e-07
-1.9288e-06
2.27564e-07
-1.9568e-06
2.0879e-07
-1.98483e-06
1.92175e-07
-2.01257e-06
1.77481e-07
-2.03974e-06
1.64463e-07
-2.06616e-06
1.52884e-07
-2.09169e-06
1.42527e-07
-2.11626e-06
1.33196e-07
-2.13979e-06
1.24722e-07
-2.16227e-06
1.16959e-07
-2.18366e-06
1.09784e-07
-2.20396e-06
1.03091e-07
-2.22317e-06
9.67952e-08
-2.24129e-06
9.08241e-08
-2.25834e-06
8.51185e-08
-2.27431e-06
7.96302e-08
-2.28921e-06
7.43194e-08
-2.30305e-06
6.91535e-08
-2.31584e-06
6.41057e-08
-2.32758e-06
5.91537e-08
-2.33828e-06
5.42779e-08
-2.34795e-06
4.94609e-08
-2.35658e-06
4.46869e-08
-2.36418e-06
3.99412e-08
-2.37075e-06
3.5211e-08
-2.37628e-06
3.04855e-08
-2.38079e-06
2.57565e-08
-2.38425e-06
2.10186e-08
-2.38668e-06
1.62688e-08
-2.38805e-06
1.15068e-08
-2.38837e-06
6.73313e-09
-2.38761e-06
1.94943e-09
-2.38575e-06
-2.84488e-09
-2.38276e-06
-7.65737e-09
-2.37861e-06
-1.25031e-08
-2.37331e-06
-1.73899e-08
-2.36685e-06
-2.23118e-08
-2.35921e-06
-2.72602e-08
-2.35039e-06
-3.22282e-08
-2.34038e-06
-3.72094e-08
-2.32918e-06
-4.21976e-08
-2.31679e-06
-4.71861e-08
-2.30321e-06
-5.21682e-08