/*--------------------------------*- C++ -*----------------------------------*\
| =========                 |                                                 |
| \\      /  F ield         | OpenFOAM: The Open Source CFD Toolbox           |
|  \\    /   O peration     | Version:  4.x                                   |
|   \\  /    A nd           | Web:      www.OpenFOAM.org                      |
|    \\/     M anipulation  |                                                 |
\*---------------------------------------------------------------------------*/
FoamFile
{
    version     2.0;
    format      ascii;
    class       volVectorField;
    location    "400";
    object      U;
}
// * * * * * * * * * * * * * * * * * * * * * * * * * * * * * * * * * * * * * //

dimensions      [0 1 -1 0 0 0 0];

internalField   nonuniform List<vector> 
12225
(
(9.76665 0.0433829 0)
(9.33129 0.0790722 0)
(8.91117 0.0855597 0)
(8.51472 0.082328 0)
(8.16037 0.075551 0)
(7.85024 0.0671464 0)
(7.58011 0.0582521 0)
(7.34611 0.049584 0)
(7.1447 0.0418311 0)
(6.97015 0.0353576 0)
(6.8179 0.0299214 0)
(6.68602 0.0252531 0)
(6.57155 0.0210832 0)
(6.47369 0.0172768 0)
(6.39084 0.0135882 0)
(6.32313 0.00956892 0)
(6.27334 0.00536277 0)
(6.2372 -0.00650428 0)
(10.0849 0.0585976 0)
(10.2268 0.0922644 0)
(10.3035 0.0919761 0)
(10.3252 0.088612 0)
(10.3145 0.0859308 0)
(10.2815 0.082555 0)
(10.2315 0.078411 0)
(10.1692 0.0739866 0)
(10.0993 0.0695374 0)
(10.0265 0.065247 0)
(9.95378 0.0612297 0)
(9.88198 0.0572903 0)
(9.81261 0.0533255 0)
(9.7458 0.0491806 0)
(9.68286 0.0446798 0)
(9.62349 0.0392631 0)
(9.56969 0.0321383 0)
(9.51554 0.0199296 0)
(10.0163 0.0422975 0)
(10.0771 0.0649862 0)
(10.1246 0.0680274 0)
(10.1603 0.0721388 0)
(10.1894 0.0762014 0)
(10.214 0.0779391 0)
(10.2326 0.0776357 0)
(10.245 0.0762029 0)
(10.2517 0.0741735 0)
(10.2541 0.0718232 0)
(10.2531 0.0691528 0)
(10.2494 0.0661772 0)
(10.2435 0.0628835 0)
(10.2361 0.0592033 0)
(10.2277 0.0549442 0)
(10.2184 0.0495331 0)
(10.2083 0.0424982 0)
(10.1945 0.0313505 0)
(10.0075 0.0303051 0)
(10.042 0.0551552 0)
(10.0726 0.062287 0)
(10.095 0.067381 0)
(10.1143 0.071005 0)
(10.1325 0.0723027 0)
(10.149 0.0719259 0)
(10.1632 0.0707308 0)
(10.1754 0.0691032 0)
(10.1859 0.0671676 0)
(10.1949 0.0649558 0)
(10.2028 0.0624815 0)
(10.2096 0.0596937 0)
(10.2155 0.0564888 0)
(10.2207 0.0526613 0)
(10.2251 0.047803 0)
(10.2283 0.0416444 0)
(10.229 0.0335884 0)
(10.0047 0.0235658 0)
(10.0286 0.0486794 0)
(10.053 0.0572038 0)
(10.0709 0.0620739 0)
(10.0861 0.0655261 0)
(10.1007 0.0670769 0)
(10.1144 0.0671182 0)
(10.1265 0.0663095 0)
(10.1373 0.0650062 0)
(10.1472 0.0633396 0)
(10.1563 0.0613664 0)
(10.1647 0.0590854 0)
(10.1725 0.0564471 0)
(10.1798 0.0533553 0)
(10.1865 0.049659 0)
(10.1925 0.0451191 0)
(10.1975 0.0396521 0)
(10.2008 0.0332774 0)
(10.0031 0.0187895 0)
(10.0207 0.042136 0)
(10.0411 0.0514169 0)
(10.0568 0.0565923 0)
(10.0703 0.0603035 0)
(10.0833 0.0622177 0)
(10.0954 0.0625936 0)
(10.1064 0.062034 0)
(10.1163 0.0609201 0)
(10.1254 0.0593986 0)
(10.134 0.0575323 0)
(10.142 0.0553251 0)
(10.1495 0.0527485 0)
(10.1566 0.0497307 0)
(10.1632 0.046177 0)
(10.169 0.0419642 0)
(10.174 0.0371046 0)
(10.1777 0.0317684 0)
(10.0021 0.0151059 0)
(10.0153 0.0359632 0)
(10.0323 0.0457432 0)
(10.0465 0.0512509 0)
(10.0588 0.0551034 0)
(10.0707 0.0572367 0)
(10.0819 0.0578629 0)
(10.0921 0.0575199 0)
(10.1015 0.056581 0)
(10.1101 0.0551957 0)
(10.1182 0.0534325 0)
(10.1259 0.0513087 0)
(10.1331 0.0488163 0)
(10.1398 0.0459109 0)
(10.146 0.0425449 0)
(10.1515 0.0386735 0)
(10.1562 0.0343595 0)
(10.1599 0.0298029 0)
(10.0015 0.0125092 0)
(10.012 0.0312242 0)
(10.0264 0.0411417 0)
(10.0394 0.0467893 0)
(10.0509 0.0506468 0)
(10.0619 0.0528789 0)
(10.0725 0.0536717 0)
(10.0822 0.0534954 0)
(10.0912 0.0526962 0)
(10.0995 0.0514229 0)
(10.1074 0.0497501 0)
(10.1147 0.0477076 0)
(10.1216 0.0453038 0)
(10.128 0.0425187 0)
(10.1339 0.039338 0)
(10.1392 0.035762 0)
(10.1437 0.0318723 0)
(10.1474 0.0278494 0)
(10.0012 0.0105716 0)
(10.0096 0.0273938 0)
(10.022 0.0371608 0)
(10.034 0.0428569 0)
(10.0448 0.0466932 0)
(10.0551 0.0489745 0)
(10.0651 0.0498821 0)
(10.0744 0.049831 0)
(10.083 0.0491401 0)
(10.0911 0.0479594 0)
(10.0986 0.0463668 0)
(10.1057 0.0444031 0)
(10.1123 0.0420894 0)
(10.1185 0.0394257 0)
(10.1242 0.0364203 0)
(10.1292 0.0331004 0)
(10.1336 0.0295515 0)
(10.1372 0.0259325 0)
(10.0009 0.00886452 0)
(10.0076 0.0236609 0)
(10.0181 0.033003 0)
(10.0289 0.0386418 0)
(10.039 0.042404 0)
(10.0486 0.0446941 0)
(10.058 0.0456919 0)
(10.0668 0.0457492 0)
(10.075 0.0451586 0)
(10.0827 0.0440707 0)
(10.09 0.0425663 0)
(10.0968 0.0406963 0)
(10.1031 0.0384926 0)
(10.109 0.0359745 0)
(10.1144 0.0331674 0)
(10.1192 0.0301161 0)
(10.1234 0.0269028 0)
(10.127 0.0236618 0)
(10.0007 0.00734515 0)
(10.006 0.0200689 0)
(10.0148 0.0287368 0)
(10.0243 0.0341834 0)
(10.0336 0.0377981 0)
(10.0425 0.0400396 0)
(10.0512 0.0410908 0)
(10.0595 0.0412367 0)
(10.0673 0.0407363 0)
(10.0746 0.0397399 0)
(10.0815 0.0383321 0)
(10.088 0.0365705 0)
(10.094 0.0344978 0)
(10.0996 0.032148 0)
(10.1047 0.0295596 0)
(10.1093 0.0267858 0)
(10.1133 0.0239006 0)
(10.1168 0.0210132 0)
(10.0005 0.00598763 0)
(10.0047 0.0166606 0)
(10.0119 0.0244232 0)
(10.0203 0.0295165 0)
(10.0287 0.0328995 0)
(10.0369 0.0350243 0)
(10.0449 0.0360778 0)
(10.0527 0.0362835 0)
(10.06 0.0358611 0)
(10.0669 0.0349549 0)
(10.0734 0.0336523 0)
(10.0795 0.0320155 0)
(10.0852 0.030095 0)
(10.0905 0.0279349 0)
(10.0953 0.0255812 0)
(10.0996 0.0230887 0)
(10.1035 0.0205205 0)
(10.1069 0.0179638 0)
(10.0004 0.00477345 0)
(10.0037 0.0134622 0)
(10.0096 0.0201255 0)
(10.0168 0.0246884 0)
(10.0243 0.0277408 0)
(10.0317 0.0296705 0)
(10.0391 0.0306609 0)
(10.0463 0.0308856 0)
(10.0532 0.0305215 0)
(10.0597 0.0297004 0)
(10.0658 0.0285091 0)
(10.0715 0.0270117 0)
(10.0769 0.0252623 0)
(10.0818 0.0233098 0)
(10.0863 0.0212024 0)
(10.0904 0.0189915 0)
(10.0941 0.0167295 0)
(10.0974 0.0144848 0)
(10.0003 0.00367823 0)
(10.0029 0.0104709 0)
(10.0077 0.015894 0)
(10.0138 0.0197515 0)
(10.0205 0.0223588 0)
(10.0272 0.024006 0)
(10.0339 0.0248572 0)
(10.0405 0.0250469 0)
(10.0469 0.0247112 0)
(10.053 0.0239624 0)
(10.0587 0.0228819 0)
(10.0641 0.0215319 0)
(10.0691 0.0199656 0)
(10.0737 0.0182316 0)
(10.078 0.0163757 0)
(10.0819 0.0144434 0)
(10.0854 0.0124765 0)
(10.0886 0.0105288 0)
(10.0002 0.00267433 0)
(10.0023 0.0076587 0)
(10.0062 0.011751 0)
(10.0115 0.0147467 0)
(10.0173 0.0167857 0)
(10.0233 0.0180556 0)
(10.0294 0.0186854 0)
(10.0355 0.0187763 0)
(10.0413 0.0184279 0)
(10.047 0.0177288 0)
(10.0523 0.0167489 0)
(10.0573 0.0155443 0)
(10.0621 0.014163 0)
(10.0664 0.0126488 0)
(10.0705 0.0110419 0)
(10.0742 0.00938009 0)
(10.0775 0.00769579 0)
(10.0806 0.00603133 0)
(10.0002 0.00173204 0)
(10.0019 0.00497401 0)
(10.0052 0.00767621 0)
(10.0097 0.00967852 0)
(10.0148 0.0110261 0)
(10.0202 0.0118193 0)
(10.0257 0.0121429 0)
(10.0312 0.0120658 0)
(10.0366 0.011655 0)
(10.0419 0.0109732 0)
(10.0468 0.0100742 0)
(10.0516 0.00900283 0)
(10.056 0.00779826 0)
(10.0601 0.00649601 0)
(10.064 0.00512823 0)
(10.0675 0.00372439 0)
(10.0708 0.00230849 0)
(10.0737 0.000913353 0)
(10.0002 0.000815194 0)
(10.0016 0.00233617 0)
(10.0045 0.00359618 0)
(10.0084 0.00449735 0)
(10.013 0.00504039 0)
(10.0179 0.00525966 0)
(10.023 0.00519364 0)
(10.0281 0.00487832 0)
(10.0331 0.0043504 0)
(10.038 0.00364624 0)
(10.0426 0.0027993 0)
(10.0471 0.00183945 0)
(10.0513 0.000793742 0)
(10.0552 -0.000313 0)
(10.0588 -0.00145822 0)
(10.0623 -0.00262131 0)
(10.0654 -0.00378602 0)
(10.0683 -0.00492797 0)
(10.0002 -7.30361e-05 0)
(10.0015 -0.000225712 0)
(10.0042 -0.000393461 0)
(10.0079 -0.000612323 0)
(10.0122 -0.000906939 0)
(10.0168 -0.00129718 0)
(10.0216 -0.00178857 0)
(10.0265 -0.00237712 0)
(10.0312 -0.00305452 0)
(10.0359 -0.00381034 0)
(10.0403 -0.0046324 0)
(10.0446 -0.00550745 0)
(10.0486 -0.00642182 0)
(10.0524 -0.00736216 0)
(10.0559 -0.00831565 0)
(10.0592 -0.00927019 0)
(10.0623 -0.0102163 0)
(10.0652 -0.011137 0)
(10.0002 -0.000904167 0)
(10.0016 -0.00261832 0)
(10.0043 -0.0041053 0)
(10.0081 -0.00534535 0)
(10.0124 -0.00639721 0)
(10.017 -0.00733788 0)
(10.0217 -0.00821413 0)
(10.0265 -0.0090505 0)
(10.0312 -0.0098651 0)
(10.0357 -0.0106718 0)
(10.0401 -0.0114781 0)
(10.0443 -0.012286 0)
(10.0482 -0.0130943 0)
(10.0519 -0.0138998 0)
(10.0554 -0.0146982 0)
(10.0587 -0.0154844 0)
(10.0617 -0.0162544 0)
(10.0646 -0.0169965 0)
(10.0002 -0.00170945 0)
(10.0018 -0.00491508 0)
(10.0048 -0.00760696 0)
(10.0089 -0.00972568 0)
(10.0135 -0.0114039 0)
(10.0182 -0.0127927 0)
(10.0231 -0.0139753 0)
(10.0279 -0.0150003 0)
(10.0326 -0.0159114 0)
(10.0372 -0.0167454 0)
(10.0415 -0.0175268 0)
(10.0457 -0.0182701 0)
(10.0496 -0.0189842 0)
(10.0533 -0.0196747 0)
(10.0568 -0.0203442 0)
(10.0601 -0.0209929 0)
(10.0631 -0.0216208 0)
(10.066 -0.0222199 0)
(10.0002 -0.00255824 0)
(10.0022 -0.00728675 0)
(10.0058 -0.011104 0)
(10.0104 -0.0139569 0)
(10.0153 -0.0161293 0)
(10.0204 -0.0178656 0)
(10.0254 -0.0192743 0)
(10.0304 -0.0204238 0)
(10.0353 -0.0213849 0)
(10.0399 -0.0222163 0)
(10.0443 -0.0229555 0)
(10.0485 -0.0236269 0)
(10.0525 -0.0242479 0)
(10.0562 -0.0248318 0)
(10.0597 -0.0253867 0)
(10.063 -0.0259168 0)
(10.0661 -0.0264248 0)
(10.069 -0.0269053 0)
(10.0003 -0.00351987 0)
(10.0028 -0.00987888 0)
(10.0072 -0.0147332 0)
(10.0126 -0.0181546 0)
(10.018 -0.0206888 0)
(10.0234 -0.0226765 0)
(10.0288 -0.0242303 0)
(10.034 -0.0254394 0)
(10.0391 -0.0264057 0)
(10.0439 -0.0272052 0)
(10.0484 -0.0278835 0)
(10.0527 -0.0284722 0)
(10.0567 -0.0289967 0)
(10.0605 -0.0294765 0)
(10.0641 -0.0299247 0)
(10.0674 -0.0303487 0)
(10.0705 -0.0307529 0)
(10.0734 -0.0311333 0)
(10.0004 -0.00467955 0)
(10.0038 -0.0128341 0)
(10.0094 -0.0185751 0)
(10.0157 -0.0223655 0)
(10.0217 -0.0251401 0)
(10.0275 -0.0272929 0)
(10.0332 -0.0289124 0)
(10.0388 -0.0301192 0)
(10.044 -0.0310512 0)
(10.049 -0.0317945 0)
(10.0537 -0.0323965 0)
(10.0582 -0.0328937 0)
(10.0623 -0.0333185 0)
(10.0662 -0.0336963 0)
(10.0698 -0.0340442 0)
(10.0732 -0.0343722 0)
(10.0765 -0.0346859 0)
(10.0794 -0.0349809 0)
(10.0006 -0.00614641 0)
(10.0053 -0.0163126 0)
(10.0125 -0.0226739 0)
(10.0198 -0.0265894 0)
(10.0265 -0.0294956 0)
(10.0328 -0.0317438 0)
(10.039 -0.0333667 0)
(10.0449 -0.0345285 0)
(10.0505 -0.0353996 0)
(10.0557 -0.0360688 0)
(10.0607 -0.0365809 0)
(10.0653 -0.0369776 0)
(10.0697 -0.0372979 0)
(10.0737 -0.0375736 0)
(10.0775 -0.0378255 0)
(10.081 -0.0380665 0)
(10.0843 -0.0383025 0)
(10.0875 -0.0385272 0)
(10.0009 -0.0080495 0)
(10.0076 -0.020463 0)
(10.017 -0.0270725 0)
(10.0254 -0.030864 0)
(10.0327 -0.0337836 0)
(10.0397 -0.0360497 0)
(10.0465 -0.0376324 0)
(10.053 -0.0387347 0)
(10.059 -0.0395426 0)
(10.0647 -0.0401342 0)
(10.07 -0.0405497 0)
(10.075 -0.0408366 0)
(10.0796 -0.0410411 0)
(10.0839 -0.041202 0)
(10.0879 -0.0413465 0)
(10.0917 -0.0414917 0)
(10.0951 -0.0416446 0)
(10.0984 -0.0417919 0)
(10.0015 -0.0106161 0)
(10.0111 -0.0252451 0)
(10.0234 -0.0317405 0)
(10.0333 -0.0353677 0)
(10.0416 -0.0382495 0)
(10.0497 -0.040394 0)
(10.0575 -0.0418177 0)
(10.0649 -0.042797 0)
(10.0717 -0.043511 0)
(10.0781 -0.0440121 0)
(10.084 -0.0443303 0)
(10.0895 -0.0445147 0)
(10.0946 -0.0446156 0)
(10.0992 -0.0446773 0)
(10.1035 -0.044733 0)
(10.1075 -0.0448046 0)
(10.1112 -0.0449029 0)
(10.1146 -0.0450024 0)
(10.0027 -0.0147382 0)
(10.0176 -0.0305656 0)
(10.0341 -0.0361038 0)
(10.0467 -0.039862 0)
(10.0574 -0.0430575 0)
(10.0677 -0.0451605 0)
(10.0776 -0.0463738 0)
(10.0866 -0.0471268 0)
(10.0948 -0.0476169 0)
(10.1023 -0.0478816 0)
(10.1092 -0.0479535 0)
(10.1155 -0.0478911 0)
(10.1212 -0.047753 0)
(10.1264 -0.0475919 0)
(10.131 -0.0474498 0)
(10.1351 -0.0473532 0)
(10.1388 -0.0473143 0)
(10.1421 -0.0472784 0)
(10.0071 -0.0226212 0)
(10.0358 -0.0379572 0)
(10.0616 -0.0401839 0)
(10.0816 -0.0429261 0)
(10.0988 -0.0464476 0)
(10.1146 -0.0490527 0)
(10.1288 -0.0506857 0)
(10.141 -0.0517818 0)
(10.1515 -0.0525221 0)
(10.1605 -0.0529197 0)
(10.1681 -0.0530171 0)
(10.1744 -0.0528893 0)
(10.1793 -0.052621 0)
(10.1831 -0.0522841 0)
(10.1858 -0.0519636 0)
(10.1876 -0.0517256 0)
(10.1887 -0.0515847 0)
(10.1892 -0.0515798 0)
(10.0396 -0.0339633 0)
(10.12 -0.0588994 0)
(10.1749 -0.0604898 0)
(10.2079 -0.0592876 0)
(10.2291 -0.0587517 0)
(10.2423 -0.0579921 0)
(10.2481 -0.0569511 0)
(10.2471 -0.0559091 0)
(10.2407 -0.0549028 0)
(10.2302 -0.0538383 0)
(10.2162 -0.0526767 0)
(10.1993 -0.0514384 0)
(10.1803 -0.0501753 0)
(10.1596 -0.0489602 0)
(10.1376 -0.0478613 0)
(10.115 -0.0469854 0)
(10.0925 -0.0463786 0)
(10.0704 -0.0464141 0)
(9.89194 -0.0267047 0)
(9.69507 -0.0519963 0)
(9.49422 -0.0598315 0)
(9.29446 -0.0618495 0)
(9.10593 -0.0618089 0)
(8.93192 -0.060268 0)
(8.77151 -0.0577468 0)
(8.62307 -0.0548004 0)
(8.48602 -0.051685 0)
(8.36009 -0.0484649 0)
(8.24475 -0.0452022 0)
(8.13935 -0.0419818 0)
(8.04311 -0.0388543 0)
(7.95531 -0.0358617 0)
(7.87514 -0.0331368 0)
(7.80121 -0.0308638 0)
(7.73214 -0.0290649 0)
(7.66774 -0.0280366 0)
(-0.00344603 0.00958693 0)
(-0.0160303 0.0157476 0)
(-0.0330707 0.0172879 0)
(-0.0518877 0.0150556 0)
(-0.0689334 0.00815592 0)
(-0.0759672 -0.00285297 0)
(-0.0634609 -0.0170863 -6.5257e-19)
(-0.0356661 -0.0340105 7.56824e-19)
(0.00436433 -0.0488668 0)
(0.052392 -0.057863 5.89248e-19)
(0.105601 -0.0608813 0)
(0.160348 -0.059438 0)
(0.21273 -0.0549205 0)
(0.260014 -0.0483204 -2.31677e-19)
(0.3008 -0.0404495 0)
(0.334432 -0.0318997 0)
(0.360583 -0.0230149 1.8392e-19)
(0.379089 -0.0139355 0)
(0.389837 -0.00459 0)
(0.392707 0.0052602 0)
(0.386438 0.0155335 -1.77313e-19)
(0.371485 0.0256978 0)
(0.34832 0.0349619 -1.91049e-19)
(0.317403 0.0425124 0)
(0.279582 0.0475626 0)
(0.236207 0.0493293 -2.56485e-19)
(0.189176 0.0471368 0)
(0.140914 0.0406024 3.70635e-19)
(0.0942982 0.0298866 0)
(0.0525566 0.0161524 -6.55919e-19)
(0.0190567 0.00239018 0)
(-0.00384404 -0.00663074 0)
(-0.0182927 -0.00830053 0)
(-0.0271681 -0.00488068 0)
(-0.0325236 4.37603e-06 0)
(-0.0369137 0.00327359 9.46515e-19)
(-0.0416909 0.0033616 0)
(-0.0444088 -0.000118832 -1.82336e-18)
(-0.0394087 -0.00686182 0)
(-0.0241674 -0.0158334 2.02897e-18)
(0.00119808 -0.0252928 0)
(0.0342111 -0.0322809 0)
(0.0704454 -0.0338783 -1.13717e-18)
(0.104939 -0.0301563 0)
(0.132879 -0.0227848 -8.10884e-19)
(0.151241 -0.0139652 7.63806e-19)
(0.159681 -0.00544548 0)
(0.158817 0.00110414 7.60391e-19)
(0.152345 0.00394394 7.81389e-19)
(0.145208 0.00377431 0)
(0.140486 0.00235514 0)
(0.144284 -0.00549253 0)
(0.154886 -0.0213969 0)
(0.162869 -0.0399996 0)
(0.153763 -0.0522914 -7.5515e-19)
(0.11708 -0.043951 0)
(0.0500088 -0.0113754 1.02811e-18)
(-0.0723865 0.0376482 0)
(-0.223284 0.0781851 0)
(-0.388028 0.106913 -2.8149e-19)
(-0.562725 0.124979 0)
(-0.739298 0.133575 1.72625e-19)
(-0.911928 0.13366 0)
(-1.07598 0.127744 0)
(-1.22833 0.118527 0)
(-1.36754 0.107618 -1.08317e-19)
(-1.49317 0.0963422 0)
(-1.60587 0.0855093 0)
(-1.70658 0.0755643 -9.20372e-20)
(-1.79652 0.0667294 0)
(-1.87699 0.0590496 -8.58847e-20)
(-1.94926 0.0524719 0)
(-2.0145 0.0468832 0)
(-2.07374 0.0421509 0)
(-2.12785 0.0381411 7.81981e-20)
(-2.17758 0.0347275 0)
(-2.22353 0.0318024 0)
(-2.26621 0.0292725 7.42842e-20)
(-2.30601 0.0270629 7.3159e-20)
(-2.34326 0.0251108 0)
(-2.37822 0.0233661 7.10816e-20)
(-2.4111 0.021789 0)
(-2.44207 0.0203474 1.38337e-19)
(-2.47126 0.0190159 0)
(-2.49879 0.0177741 1.34729e-19)
(-2.52473 0.0166054 0)
(-2.54916 0.0154958 -1.31264e-19)
(-2.57212 0.0144335 0)
(-2.59367 0.0134078 0)
(-2.61383 0.0124091 0)
(-2.63262 0.0114278 1.24567e-19)
(-2.65005 0.0104549 0)
(-2.66612 0.00948088 -1.21265e-19)
(-2.68083 0.00849654 0)
(-2.69416 0.0074929 1.17964e-19)
(-2.70607 0.00646205 1.16309e-19)
(-2.71652 0.00539776 1.14651e-19)
(-2.72546 0.00429868 0)
(-2.73284 0.00317599 0)
(-2.7386 0.00207057 0)
(-2.74266 0.00106488 0)
(-2.74499 0.000239996 0)
(-2.746 -0.000448142 0)
(-2.74577 -0.00109317 0)
(-2.74432 -0.00172172 0)
(-2.74165 -0.00234132 -9.90125e-20)
(-2.73776 -0.00295412 -9.71072e-20)
(-2.73266 -0.00356007 0)
(-2.72633 -0.00415907 0)
(-2.71878 -0.00475038 0)
(-2.71001 -0.00533368 -8.90449e-20)
(-2.70002 -0.00590825 0)
(-2.68881 -0.00647392 0)
(-2.67639 -0.00703012 0)
(-2.66275 -0.00757689 0)
(-2.64792 -0.00811382 7.78374e-20)
(-2.63188 -0.00864107 0)
(-2.61466 -0.00915825 0)
(-2.59625 -0.0096655 -7.04228e-20)
(-2.57667 -0.0101624 6.78249e-20)
(-2.55593 -0.0106489 0)
(-2.53403 -0.0111246 6.24278e-20)
(-2.51098 -0.0115896 0)
(-2.48681 -0.0120433 -5.67479e-20)
(-2.46151 -0.0124854 0)
(-2.43511 -0.0129133 0)
(-2.40762 -0.0133185 0)
(-2.37907 -0.0136902 0)
(-2.34947 -0.0140225 0)
(-2.31885 -0.0142882 7.56377e-20)
(-2.28726 -0.0144368 6.87181e-20)
(-2.25474 -0.0144317 0)
(-2.22133 -0.0144028 0)
(-2.18696 -0.0146072 0)
(-2.15162 -0.0149389 -3.91374e-20)
(-2.11537 -0.015217 0)
(-2.07825 -0.0154846 0)
(-2.04029 -0.0157374 0)
(-2.00151 -0.0159805 -5.93259e-21)
(-1.96195 -0.0162123 -3.02786e-21)
(-1.92163 -0.0164314 0)
(-1.88058 -0.016639 0)
(-1.83882 -0.0168339 -3.17085e-20)
(-1.79639 -0.017018 -4.19222e-20)
(-1.75332 -0.017191 0)
(-1.70962 -0.0173556 0)
(-1.66533 -0.0175127 7.4789e-20)
(-1.62046 -0.0176655 -8.65604e-20)
(-1.57505 -0.0178158 0)
(-1.52911 -0.0179657 0)
(-1.48264 -0.0181161 -1.24698e-19)
(-1.43567 -0.0182667 0)
(-1.38818 -0.0184193 0)
(-1.34022 -0.0185658 -1.67819e-19)
(-1.29177 -0.0187152 0)
(-1.24289 -0.0188579 -1.99918e-19)
(-1.19356 -0.019004 0)
(-1.14384 -0.0191448 0)
(-1.09372 -0.0192933 0)
(-1.04325 -0.019442 2.74276e-19)
(-0.992399 -0.0196058 0)
(-0.941187 -0.0197872 0)
(-0.889586 -0.0199889 0)
(-0.837578 -0.0202167 0)
(-0.785135 -0.0204698 0)
(-0.732235 -0.0207481 0)
(-0.67886 -0.0210501 4.53107e-19)
(-0.625001 -0.0213741 4.8627e-19)
(-0.570656 -0.0217194 0)
(-0.515829 -0.0220861 0)
(-0.460527 -0.0224748 0)
(-0.404763 -0.0228832 -6.49548e-19)
(-0.348568 -0.0233048 0)
(-0.292006 -0.0237236 1.51334e-18)
(-0.23519 -0.0241261 -1.63834e-18)
(-0.178404 -0.0244361 -1.77814e-18)
(-0.122213 -0.0245456 1.9351e-18)
(-0.0679087 -0.0239866 -2.11311e-18)
(-0.0087702 -0.0226263 2.27879e-18)
(0.00774774 -0.0127297 0)
(-3.97029e-05 0.0254786 0)
(-0.00672941 0.044636 0)
(-0.01567 0.048043 1.98611e-18)
(-0.020742 0.0411272 0)
(-0.0122214 0.0218138 -2.4333e-18)
(0.0180962 -0.0145896 -1.78394e-18)
(0.0593134 -0.0649581 -5.00966e-19)
(0.109449 -0.1122 -3.32923e-19)
(0.164106 -0.146251 0)
(0.219085 -0.164231 -2.01126e-19)
(0.271116 -0.167656 0)
(0.318147 -0.160235 0)
(0.359344 -0.145926 2.79885e-19)
(0.394611 -0.127696 1.31006e-19)
(0.424122 -0.107512 -2.51427e-19)
(0.448099 -0.0866399 -2.44307e-19)
(0.466885 -0.0657507 -1.19972e-19)
(0.480849 -0.0451257 0)
(0.490311 -0.0248034 0)
(0.495783 -0.00459468 0)
(0.49816 0.0156813 -1.2285e-19)
(0.497054 0.0358665 0)
(0.491888 0.0556636 3.77581e-19)
(0.481937 0.0745954 0)
(0.466338 0.0919379 0)
(0.444259 0.106651 1.39106e-19)
(0.415069 0.117399 0)
(0.378578 0.12269 -1.59392e-19)
(0.335221 0.121214 -3.5367e-19)
(0.286169 0.112301 2.02102e-19)
(0.23344 0.0964945 0)
(0.17991 0.0758532 0)
(0.128892 0.0532056 0)
(0.0846869 0.031604 -1.03831e-18)
(0.051567 0.014229 -1.41154e-18)
(0.0317212 0.00257325 -9.24385e-19)
(0.0245526 -0.00665537 0)
(0.0316696 -0.0188155 1.98677e-18)
(0.0484068 -0.0361359 0)
(0.0737245 -0.0581541 -1.03746e-18)
(0.105503 -0.0787592 0)
(0.13814 -0.0891715 0)
(0.165292 -0.0857891 5.0509e-19)
(0.184443 -0.0712806 0)
(0.194645 -0.0504635 1.37196e-18)
(0.196538 -0.0284436 -4.76786e-19)
(0.191256 -0.00850157 0)
(0.181386 0.00542677 -5.43444e-19)
(0.169266 0.00911353 -5.92852e-19)
(0.155162 0.00207833 0)
(0.132365 -0.010023 0)
(0.0863448 -0.0145956 0)
(-0.0102344 0.0128826 0)
(-0.170512 0.0801338 0)
(-0.353314 0.150576 2.83156e-19)
(-0.544226 0.214672 3.9724e-19)
(-0.7357 0.270573 -1.51418e-19)
(-0.924583 0.313218 0)
(-1.10423 0.337847 2.10123e-19)
(-1.2703 0.345286 -9.35106e-20)
(-1.41988 0.338947 0)
(-1.55133 0.32229 -7.71133e-20)
(-1.66496 0.298899 0)
(-1.76199 0.271922 0)
(-1.84454 0.24395 -1.34493e-19)
(-1.915 0.216831 6.46199e-20)
(-1.97567 0.191743 -1.26757e-19)
(-2.02859 0.169285 1.23792e-19)
(-2.07543 0.149624 6.03446e-20)
(-2.11752 0.132682 0)
(-2.15585 0.118228 5.82712e-20)
(-2.19117 0.105961 0)
(-2.22402 0.095564 0)
(-2.25477 0.0867304 0)
(-2.2837 0.0791852 5.49648e-20)
(-2.31101 0.07269 0)
(-2.33685 0.0670466 1.06917e-19)
(-2.36133 0.06209 -1.58281e-19)
(-2.38452 0.0576878 -5.20932e-20)
(-2.4065 0.0537323 0)
(-2.4273 0.0501384 -5.07803e-20)
(-2.44697 0.0468381 0)
(-2.46554 0.0437779 -9.90119e-20)
(-2.48302 0.0409147 0)
(-2.49943 0.0382146 -9.65098e-20)
(-2.5148 0.03565 1.90437e-19)
(-2.52913 0.0331985 9.40303e-20)
(-2.54242 0.0308415 0)
(-2.55468 0.0285633 0)
(-2.56592 0.0263502 0)
(-2.57614 0.0241902 -8.90648e-20)
(-2.58532 0.0220722 0)
(-2.59348 0.0199862 8.65505e-20)
(-2.60062 0.0179227 0)
(-2.60673 0.0158732 -2.52011e-19)
(-2.61184 0.0138303 -8.27133e-20)
(-2.61596 0.011787 -8.14147e-20)
(-2.61913 0.0097367 0)
(-2.6214 0.00767597 0)
(-2.62284 0.00562151 0)
(-2.62355 0.00363163 0)
(-2.62361 0.00178395 0)
(-2.62266 6.19143e-05 -1.46675e-19)
(-2.62057 -0.00160252 -1.438e-19)
(-2.61731 -0.00323287 0)
(-2.61287 -0.00483812 6.88748e-20)
(-2.60723 -0.0064207 6.73601e-20)
(-2.6004 -0.00798025 0)
(-2.59235 -0.00951575 1.28735e-19)
(-2.5831 -0.0110255 0)
(-2.57264 -0.012508 -6.13055e-20)
(-2.56098 -0.0139617 0)
(-2.5481 -0.0153855 0)
(-2.53403 -0.0167782 1.12342e-19)
(-2.51876 -0.0181395 0)
(-2.50229 -0.0194686 -5.25077e-20)
(-2.48464 -0.0207656 0)
(-2.46582 -0.0220299 0)
(-2.44582 -0.0232616 -4.74129e-20)
(-2.42465 -0.02446 -4.51111e-20)
(-2.40234 -0.0256247 0)
(-2.37888 -0.0267548 4.16635e-20)
(-2.35428 -0.0278498 0)
(-2.32857 -0.0289089 -3.76549e-20)
(-2.30175 -0.0299315 -7.06929e-20)
(-2.27385 -0.0309172 0)
(-2.24487 -0.0318656 0)
(-2.21484 -0.0327776 0)
(-2.18377 -0.0336563 0)
(-2.15166 -0.0345078 -4.83337e-20)
(-2.11854 -0.0353411 -1.32346e-19)
(-2.0844 -0.0361605 0)
(-2.04925 -0.0369526 0)
(-2.01314 -0.037689 0)
(-1.97614 -0.0383566 2.44979e-20)
(-1.93824 -0.0389684 0)
(-1.89947 -0.0395342 0)
(-1.85986 -0.0400597 -1.97014e-20)
(-1.81942 -0.0405465 -5.251e-21)
(-1.77819 -0.0409952 1.44264e-21)
(-1.73619 -0.0414065 0)
(-1.69345 -0.0417802 0)
(-1.65 -0.0421154 1.80985e-20)
(-1.60585 -0.0424136 -2.24199e-20)
(-1.56104 -0.0426751 0)
(-1.51559 -0.0429029 0)
(-1.46953 -0.0430999 -4.16949e-20)
(-1.42289 -0.0432715 1.42083e-19)
(-1.3757 -0.0434234 0)
(-1.32796 -0.0435602 0)
(-1.2797 -0.043685 6.7022e-20)
(-1.23092 -0.0437962 0)
(-1.18164 -0.0438982 1.59226e-19)
(-1.13187 -0.04398 -8.57108e-20)
(-1.08161 -0.0440466 0)
(-1.03089 -0.0440902 1.01473e-19)
(-0.97972 -0.0441164 2.15913e-19)
(-0.928134 -0.0441209 0)
(-0.876126 -0.044113 0)
(-0.823737 -0.0440952 -1.31649e-19)
(-0.770948 -0.044075 0)
(-0.717779 -0.0440661 2.93745e-19)
(-0.664207 -0.0440719 0)
(-0.610215 -0.0441012 0)
(-0.55578 -0.0441531 0)
(-0.500875 -0.0442251 0)
(-0.445481 -0.0443121 -1.91188e-19)
(-0.389586 -0.044408 -2.00533e-19)
(-0.333182 -0.044508 0)
(-0.276271 -0.0446094 0)
(-0.218856 -0.0447099 0)
(-0.160944 -0.0448048 2.4053e-19)
(-0.102554 -0.0448783 0)
(-0.0437453 -0.0448921 -5.24677e-19)
(0.0153986 -0.0447657 5.38762e-19)
(0.0746662 -0.0443619 5.42094e-19)
(0.13391 -0.0435912 5.39931e-19)
(0.191388 -0.0419973 5.45981e-19)
(0.252217 -0.0387668 5.47831e-19)
(0.290747 -0.0281209 0)
(0.00102876 0.0275071 0)
(0.00194297 0.0508521 0)
(0.00565242 0.0494793 -2.1696e-18)
(0.0213024 0.0235421 -1.79849e-18)
(0.0585797 -0.0356443 1.10258e-18)
(0.114367 -0.11421 6.65698e-19)
(0.177165 -0.18674 -3.14176e-22)
(0.236913 -0.236999 0)
(0.288577 -0.261223 0)
(0.330894 -0.263423 0)
(0.364624 -0.25009 0)
(0.391393 -0.227263 0)
(0.412803 -0.199501 -6.40314e-19)
(0.430034 -0.169829 0)
(0.443825 -0.139984 1.99182e-19)
(0.454664 -0.110876 1.95651e-19)
(0.462904 -0.0828673 0)
(0.468771 -0.0560311 0)
(0.472447 -0.0303268 0)
(0.474066 -0.00564416 0)
(0.473975 0.0182467 2.00738e-19)
(0.472492 0.0417196 0)
(0.469925 0.0650625 -2.05511e-19)
(0.466463 0.0883211 0)
(0.461968 0.11121 0)
(0.45592 0.13303 0)
(0.447377 0.152632 -4.71281e-19)
(0.435013 0.168437 0)
(0.417345 0.178608 2.60309e-19)
(0.393106 0.181386 -5.57662e-19)
(0.361778 0.17557 0)
(0.324112 0.161012 0)
(0.28241 0.1387 0)
(0.240435 0.110575 4.52794e-19)
(0.202654 0.0791663 5.39125e-19)
(0.173263 0.0467302 0)
(0.15567 0.013705 0)
(0.150418 -0.0209463 -1.53762e-18)
(0.15726 -0.0574015 -1.33253e-18)
(0.172129 -0.0924261 1.08291e-18)
(0.187071 -0.115255 0)
(0.194004 -0.116542 0)
(0.191084 -0.099499 0)
(0.179524 -0.0714061 0)
(0.160498 -0.0393987 -7.30739e-19)
(0.135549 -0.0111131 -8.06967e-19)
(0.104951 0.0130574 9.24117e-19)
(0.066651 0.0335734 0)
(0.0072757 0.0479613 0)
(-0.0963219 0.0793658 0)
(-0.242686 0.141828 0)
(-0.418163 0.21785 -4.2797e-19)
(-0.608258 0.296386 0)
(-0.800689 0.370526 0)
(-0.983949 0.432161 -2.07895e-19)
(-1.15159 0.478594 -1.78334e-19)
(-1.29763 0.508949 0)
(-1.41862 0.521408 2.88855e-19)
(-1.51609 0.516467 -1.32081e-19)
(-1.59333 0.49679 1.23639e-19)
(-1.65447 0.466195 0)
(-1.70383 0.428726 0)
(-1.74522 0.388066 0)
(-1.78175 0.347264 0)
(-1.81556 0.308496 1.00468e-19)
(-1.84798 0.273102 1.9699e-19)
(-1.87969 0.2417 9.52104e-20)
(-1.91095 0.214394 -9.29785e-20)
(-1.94179 0.190955 0)
(-1.97211 0.170985 1.78643e-19)
(-2.00178 0.154019 1.75042e-19)
(-2.03069 0.139592 1.71723e-19)
(-2.05872 0.12727 -1.68621e-19)
(-2.0858 0.116671 0)
(-2.11187 0.107473 -2.4443e-19)
(-2.13692 0.0994121 0)
(-2.16092 0.0922736 7.8867e-20)
(-2.18388 0.0858784 7.77525e-20)
(-2.2058 0.0800859 0)
(-2.22668 0.0747826 0)
(-2.24653 0.0698795 1.4858e-19)
(-2.26538 0.0653049 0)
(-2.28322 0.0610023 1.44272e-19)
(-2.30007 0.0569262 0)
(-2.31593 0.05304 -1.40084e-19)
(-2.33081 0.0493142 -2.76142e-19)
(-2.34473 0.0457244 0)
(-2.35767 0.0422501 0)
(-2.36966 0.038874 0)
(-2.38068 0.035581 -1.29872e-19)
(-2.39074 0.0323584 0)
(-2.39984 0.0291952 -1.25818e-19)
(-2.40799 0.0260826 0)
(-2.41517 0.0230141 0)
(-2.4214 0.0199862 2.39444e-19)
(-2.42667 0.0169985 0)
(-2.43099 0.0140546 1.15622e-19)
(-2.43436 0.0111619 0)
(-2.43679 0.00833046 1.11503e-19)
(-2.43827 0.00556863 0)
(-2.43876 0.00286923 0)
(-2.43821 0.000195194 0)
(-2.43656 -0.002474 3.0844e-19)
(-2.4338 -0.00512394 1.00502e-19)
(-2.4299 -0.00774499 0)
(-2.42486 -0.0103347 0)
(-2.41866 -0.0128908 0)
(-2.41129 -0.0154111 0)
(-2.40275 -0.0178928 -8.88955e-20)
(-2.39304 -0.0203331 1.73373e-19)
(-2.38215 -0.022729 8.40609e-20)
(-2.37008 -0.0250779 -1.6364e-19)
(-2.35683 -0.0273774 -1.58681e-19)
(-2.34241 -0.0296258 -7.65823e-20)
(-2.32683 -0.0318218 0)
(-2.31007 -0.0339647 -1.43423e-19)
(-2.29216 -0.036054 0)
(-2.2731 -0.0380894 1.32925e-19)
(-2.25289 -0.0400703 6.34778e-20)
(-2.23154 -0.0419961 0)
(-2.20907 -0.0438657 -1.16679e-19)
(-2.18547 -0.045678 -5.5219e-20)
(-2.16077 -0.0474316 0)
(-2.13497 -0.0491251 -5.02832e-20)
(-2.10808 -0.0507572 1.40742e-19)
(-2.08013 -0.0523264 0)
(-2.05113 -0.0538311 0)
(-2.02108 -0.0552702 0)
(-1.99002 -0.0566438 0)
(-1.95795 -0.0579511 6.43353e-20)
(-1.92489 -0.0591925 5.73118e-20)
(-1.89084 -0.0603724 0)
(-1.85583 -0.0615003 0)
(-1.8199 -0.0625757 0)
(-1.78308 -0.0635831 0)
(-1.74539 -0.0645175 0)
(-1.70684 -0.0653819 0)
(-1.66746 -0.0661796 1.24035e-20)
(-1.62726 -0.066914 -9.99153e-22)
(-1.58629 -0.0675864 0)
(-1.54455 -0.0681973 0)
(-1.50208 -0.0687467 -1.35177e-20)
(-1.4589 -0.0692342 0)
(-1.41502 -0.0696607 2.83698e-20)
(-1.37048 -0.0700272 3.43001e-20)
(-1.32531 -0.0703362 0)
(-1.27952 -0.0705922 0)
(-1.23316 -0.070802 -5.66649e-20)
(-1.18623 -0.070974 -1.25556e-19)
(-1.13877 -0.0711161 0)
(-1.09079 -0.0712333 0)
(-1.0423 -0.0713269 0)
(-0.993315 -0.0713982 -9.32107e-20)
(-0.943836 -0.071441 1.00687e-19)
(-0.893884 -0.0714532 0)
(-0.843463 -0.0714325 2.29324e-19)
(-0.792599 -0.0713777 1.21145e-19)
(-0.741295 -0.0712916 -2.59976e-19)
(-0.689576 -0.0711771 0)
(-0.637446 -0.0710449 0)
(-0.584918 -0.0709015 -3.06755e-19)
(-0.531992 -0.0707664 -1.62448e-19)
(-0.478659 -0.0706468 0)
(-0.424903 -0.0705538 0)
(-0.3707 -0.0704878 0)
(-0.316029 -0.0704448 0)
(-0.260868 -0.0704169 -4.02997e-19)
(-0.205202 -0.0703941 0)
(-0.149024 -0.0703679 0)
(-0.0923285 -0.0703325 0)
(-0.0351184 -0.0702829 0)
(0.022601 -0.0702069 0)
(0.0808212 -0.0700807 0)
(0.139505 -0.0698576 -4.96351e-19)
(0.198592 -0.0694424 0)
(0.2579 -0.0686736 0)
(0.31741 -0.0673665 -1.03502e-18)
(0.375713 -0.0650186 5.23517e-19)
(0.436887 -0.060769 -5.35193e-19)
(0.485314 -0.0499949 5.46567e-19)
(-0.00119017 0.0267908 0)
(0.000380159 0.0408819 4.77711e-18)
(0.0167565 0.0119311 0)
(0.0631272 -0.0701961 9.89529e-19)
(0.131888 -0.17521 0)
(0.203882 -0.265346 0)
(0.264903 -0.321325 -3.08022e-19)
(0.309978 -0.342527 0)
(0.340634 -0.337462 0)
(0.360787 -0.316154 0)
(0.374278 -0.286375 0)
(0.383857 -0.253 0)
(0.391158 -0.218693 7.16048e-19)
(0.397022 -0.184755 3.48177e-19)
(0.401805 -0.151755 -3.41848e-19)
(0.405603 -0.119934 0)
(0.4084 -0.0893808 0)
(0.410159 -0.0600916 0)
(0.410864 -0.0320258 0)
(0.410525 -0.00512179 0)
(0.40923 0.0207357 3.56973e-19)
(0.407087 0.0457011 3.59593e-19)
(0.404323 0.0699432 -3.64466e-19)
(0.401242 0.0936072 3.72212e-19)
(0.398136 0.116749 0)
(0.395196 0.139237 0)
(0.392384 0.160641 4.14381e-19)
(0.389317 0.180124 0)
(0.38516 0.196371 0)
(0.378668 0.207616 4.85438e-19)
(0.368445 0.211832 5.16111e-19)
(0.35345 0.207142 5.53352e-19)
(0.333511 0.192289 0)
(0.309681 0.167026 0)
(0.284199 0.132384 -7.51331e-19)
(0.260243 0.0903304 0)
(0.240999 0.0433272 0)
(0.228342 -0.0063259 1.08542e-18)
(0.221336 -0.0565244 -9.56e-19)
(0.212808 -0.0952222 7.96769e-19)
(0.19564 -0.108287 0)
(0.168051 -0.0946449 0)
(0.131365 -0.064784 1.34499e-18)
(0.0857089 -0.0265804 0)
(0.0324676 0.0171244 1.70757e-18)
(-0.0352045 0.0616556 2.5567e-18)
(-0.131105 0.110908 -1.99853e-18)
(-0.252979 0.174734 1.00134e-18)
(-0.401195 0.249974 0)
(-0.570988 0.332569 0)
(-0.748761 0.416526 4.80314e-19)
(-0.922538 0.493565 1.99526e-19)
(-1.08123 0.556175 0)
(-1.218 0.600425 0)
(-1.33033 0.626103 1.36847e-19)
(-1.41886 0.634966 2.53487e-19)
(-1.48498 0.628975 0)
(-1.53208 0.610215 -2.18417e-19)
(-1.56503 0.580871 2.08357e-19)
(-1.5887 0.543911 -1.9779e-19)
(-1.60745 0.502403 0)
(-1.62458 0.459149 0)
(-1.64223 0.416373 0)
(-1.6616 0.375699 0)