/*--------------------------------*- C++ -*----------------------------------*\
| =========                 |                                                 |
| \\      /  F ield         | OpenFOAM: The Open Source CFD Toolbox           |
|  \\    /   O peration     | Version:  4.1                                   |
|   \\  /    A nd           | Web:      www.OpenFOAM.org                      |
|    \\/     M anipulation  |                                                 |
\*---------------------------------------------------------------------------*/
FoamFile
{
    version     2.0;
    format      ascii;
    class       volScalarField;
    location    "0";
    object      p;
}
// * * * * * * * * * * * * * * * * * * * * * * * * * * * * * * * * * * * * * //

dimensions      [0 2 -2 0 0 0 0];

internalField   nonuniform List<scalar> 
12225
(
4.28655
4.43116
4.28069
4.71104
4.42382
4.26692
5.07054
4.70298
4.40687
4.24298
5.4894
5.06066
4.68458
4.37768
4.20587
5.96225
5.47706
5.03814
4.65274
4.33293
4.15214
6.4837
5.94648
5.44889
4.99925
4.60363
4.26882
4.07776
7.0512
6.46316
5.91051
5.4003
4.93947
4.5329
4.18096
3.99349
7.66419
7.02391
6.41638
5.8486
5.32576
4.85369
4.43563
4.08219
3.90306
8.3235
7.62707
6.96185
6.33604
5.75389
5.21914
4.7362
4.32626
3.97681
3.78418
9.03062
8.27157
7.54281
6.85559
6.21362
5.61902
5.07383
4.60475
4.20972
3.83967
3.62865
9.78557
8.95535
8.15398
7.39917
6.6945
6.04026
5.43627
4.91227
4.4653
4.05799
3.66267
3.42689
10.5805
9.67138
8.78559
7.95476
7.18294
6.46806
5.80716
5.23472
4.74186
4.28488
3.86191
3.43652
3.16854
11.3779
10.3963
9.41561
8.50063
7.65785
6.88208
6.1667
5.55271
5.02365
4.523
4.05364
3.61147
3.15156
2.84375
12.0233
11.0534
9.98927
8.99263
8.08219
7.25058
6.48714
5.8421
5.28865
4.75509
4.24517
3.76126
3.29681
2.79932
2.44543
11.7628
11.3722
10.3588
9.33344
8.38556
7.51989
6.72601
6.06925
5.50917
4.95657
4.41821
3.89822
3.39854
2.91015
2.37516
1.97291
4.66798
10.2418
10.0888
9.29356
8.42652
7.59436
6.81469
6.18414
5.64711
5.09664
4.54616
4.00385
3.47444
2.95977
2.4487
1.88199
1.43671
-19.5211
2.81186
7.82172
8.30614
7.91025
7.29844
6.63916
6.10983
5.64763
5.13394
4.59623
4.05066
3.50723
2.97165
2.44615
1.91851
1.33466
0.904974
-17.6554
-97.9694
-0.149291
5.00223
6.2225
6.30918
6.00932
5.72692
5.43039
5.01139
4.52596
4.00587
3.47038
2.93167
2.39687
1.86954
1.33829
0.804495
0.466047
-18.173
-62.1442
-107.217
-88.4249
-3.24838
2.18963
4.05926
4.61845
4.85344
4.8786
4.65028
4.27999
3.82912
3.33378
2.81655
2.29212
1.76964
1.25539
0.784569
0.376134
0.135042
-18.8819
-45.7258
-88.1346
-53.5521
-57.53
-36.7026
-5.84532
-0.310184
2.0169
3.22861
3.82927
3.9451
3.78752
3.4715
3.06293
2.60189
2.11423
1.61739
1.12336
0.686781
0.342953
0.0585127
-0.110315
-18.8035
-38.2332
-68.7709
-43.6744
-13.7425
-24.2724
-26.457
-22.3584
-7.64588
-2.31461
0.529047
2.07573
2.76399
2.96305
2.87651
2.62003
2.26242
1.84694
1.40234
0.948981
0.547325
0.245978
0.0191047
-0.174013
-0.28959
-17.8475
-32.0366
-51.553
-44.5468
-26.8705
1.50579
-4.46853
-12.8922
-15.5565
-12.699
-8.62764
-3.52022
-0.592922
0.96515
1.71462
1.98508
1.96739
1.77452
1.47615
1.11739
0.729299
0.379479
0.116922
-0.0698691
-0.215708
-0.342532
-0.418709
-16.296
-26.5642
-39.2331
-40.5575
-29.3234
-16.2579
11.1102
6.72823
-1.07757
-6.99988
-8.01303
-5.964
-8.86551
-4.27761
-1.55451
-0.03315
0.747754
1.07443
1.12046
0.992711
0.75925
0.465469
0.186182
-0.0275461
-0.182076
-0.294605
-0.384491
-0.463388
-0.510175
-14.7535
-21.9055
-30.5736
-34.6862
-29.2875
-18.8519
-8.82085
17.3914
13.92
7.79707
1.34673
-2.1298
-2.47616
-0.961369
-8.76277
-4.76452
-2.29471
-0.853352
-0.0706889
0.294751
0.395948
0.330521
0.162402
-0.0260528
-0.180912
-0.29949
-0.389372
-0.453728
-0.50469
-0.548912
-0.57362
-13.3194
-18.6213
-24.2428
-28.7653
-27.2893
-20.1042
-11.2176
-3.30105
21.6693
18.8991
14.2644
8.51323
3.96723
1.85227
1.77526
2.93283
-8.37462
-4.96009
-2.77319
-1.44541
-0.687774
-0.302227
-0.158278
-0.170196
-0.248191
-0.33427
-0.413743
-0.481663
-0.532982
-0.56573
-0.589267
-0.608308
-0.616393
-11.7668
-16.066
-20.1327
-23.5035
-24.1867
-19.9976
-12.8622
-5.42655
0.977399
24.6978
22.4984
18.986
14.2925
9.65387
6.47142
5.12507
5.15813
6.06858
-7.7368
-4.87168
-2.97639
-1.78402
-1.07359
-0.68712
-0.51727
-0.468408
-0.477565
-0.515198
-0.562233
-0.604103
-0.632234
-0.64386
-0.647782
-0.648444
-0.644051
-10.1559
-13.6493
-17.0747
-19.7145
-20.6977
-18.7883
-13.6296
-7.123
-0.888184
4.40543
26.9022
25.1717
22.4871
18.7907
14.6202
11.0056
8.7452
7.8486
7.92527
8.65831
-6.90084
-4.5305
-2.91799
-1.87172
-1.22596
-0.858504
-0.672307
-0.599653
-0.594123
-0.621456
-0.657479
-0.686494
-0.700413
-0.697605
-0.687294
-0.674452
-0.660794
-8.53788
-11.3831
-14.2793
-16.7682
-17.7863
-16.8554
-13.5367
-8.26492
-2.50753
2.76661
7.22307
28.8652
27.184
25.1269
22.2512
18.742
15.2029
12.4109
10.7688
10.1467
10.2379
10.8392
-5.92342
-3.98374
-2.63358
-1.73594
-1.1693
-0.843591
-0.688713
-0.640845
-0.650351
-0.683779
-0.71878
-0.741768
-0.746696
-0.733784
-0.713006
-0.690207
-0.66978
-6.95155
-9.27364
-11.7234
-14.0029
-15.3464
-14.9092
-12.7235
-8.78889
-3.77949
1.26758
5.77657
9.58563
30.3608
29.028
27.1354
24.9129
22.0636
18.8814
15.9472
13.7815
12.5588
12.1113
12.2037
12.7041
-4.85903
-3.28592
-2.17279
-1.42268
-0.9652
-0.732915
-0.646121
-0.640723
-0.674819
-0.720133
-0.758195
-0.778504
-0.77748
-0.75731
-0.728767
-0.698661
-0.672843
-5.4253
-7.32205
-9.39176
-11.4334
-12.9239
-13.1174
-11.6014
-8.71098
-4.62373
-0.0161847
4.40602
8.30131
11.5983
31.358
30.4588
28.985
26.9615
24.6987
21.9845
19.1835
16.773
15.0751
14.1424
13.8099
13.8974
14.3186
-3.75596
-2.49205
-1.59205
-1.02077
-0.721248
-0.601626
-0.585431
-0.62365
-0.683063
-0.741082
-0.783345
-0.802472
-0.797258
-0.77175
-0.73742
-0.700746
-3.97985
-5.52716
-7.27111
-9.06825
-10.5768
-11.1994
-10.4289
-8.21423
-5.00219
-1.01002
3.166
7.05364
10.4511
13.3348
32.0569
31.4208
30.4264
28.8553
26.768
24.5345
22.0263
19.6035
17.6245
16.2753
15.5474
15.293
15.3727
15.7303
-2.6553
-1.65423
-0.996216
-0.644408
-0.500475
-0.478696
-0.524724
-0.601598
-0.683499
-0.75289
-0.799117
-0.817598
-0.809234
-0.779702
-0.739234
-2.63088
-3.88683
-5.34933
-6.90815
-8.3507
-9.22739
-9.04519
-7.55778
-4.94914
-1.65802
2.11895
5.88151
9.31584
12.3043
14.8488
32.5732
32.1004
31.3972
30.334
28.7009
26.59
24.4449
22.1759
20.0986
18.4667
17.3789
16.7988
16.5986
16.6693
16.9748
-1.59216
-0.881158
-0.495586
-0.337696
-0.316389
-0.374064
-0.471358
-0.580201
-0.680632
-0.759303
-0.808695
-0.826609
-0.81573
-0.780759
-1.39169
-2.3991
-3.61574
-4.94893
-6.27478
-7.26969
-7.51001
-6.66039
-4.6903
-1.90552
1.3219
4.83475
8.22002
11.27
13.9182
16.1801
32.964
32.6051
32.0846
31.3308
30.219
28.5419
26.4509
24.4348
22.4104
20.6346
19.2792
18.3893
17.9179
17.7559
17.8171
18.0793
-0.669794
-0.271028
-0.110564
-0.0962328
-0.169379
-0.289625
-0.427651
-0.561856
-0.67682
-0.762578
-0.814191
-0.831445
-0.815667
-0.355947
-1.06339
-2.06143
-3.18392
-4.36538
-5.3804
-5.89291
-5.55704
-4.19829
-1.9377
0.878907
3.96473
7.20246
10.2511
12.9739
15.3359
17.359
33.2657
32.9885
32.5945
32.0375
31.246
30.0922
28.3947
26.3621
24.4978
22.7061
21.1865
20.051
19.3126
18.9223
18.7877
18.8394
19.0648
0.0298716
0.181262
0.182117
0.089895
-0.0553405
-0.224002
-0.393615
-0.547327
-0.673245
-0.764095
-0.817064
-0.830282
0.410138
0.0335205
-0.679935
-1.60575
-2.62993
-3.59842
-4.2591
-4.30285
-3.48284
-1.76475
0.641808
3.40034
6.30681
9.27761
12.0289
14.4715
16.5899
18.409
33.5019
33.2851
32.9815
32.5604
31.9761
31.1489
29.9634
28.2707
26.3261
24.6215
23.0421
21.7372
20.7769
20.1557
19.8269
19.7119
19.7544
19.9483
0.535965
0.517132
0.402657
0.230951
0.0309754
-0.174663
-0.368285
-0.536602
-0.670451
-0.764755
-0.814739
0.95538
0.834441
0.445208
-0.207955
-1.07016
-1.94943
-2.6633
-2.95981
-2.57799
-1.37653
0.573759
3.02408
5.67215
8.38535
11.1062
13.5957
15.7966
17.7058
19.3488
33.6886
33.5177
33.2807
32.9564
32.5152
31.9036
31.0452
29.8412
28.1762
26.3393
24.7923
23.4013
22.2752
21.4551
20.9256
20.6439
20.543
20.5766
20.7432
0.905802
0.766305
0.567246
0.336014
0.094673
-0.138854
-0.350383
-0.529322
-0.66872
-0.761236
1.34954
1.39962
1.26139
0.926264
0.314846
-0.448866
-1.14752
-1.58813
-1.5328
-0.786123
0.698061
2.77999
5.20518
7.71515
10.2347
12.726
14.9848
16.976
18.7037
20.1934
33.8371
33.7018
33.5151
33.2618
32.9225
32.4605
31.8233
30.9405
29.7316
28.1135
26.395
24.9974
23.7709
22.7932
22.0859
21.6289
21.3837
21.2928
21.3179
21.4606
1.17721
0.950296
0.68854
0.412656
0.140269
-0.114015
-0.338612
-0.525113
-0.664012
1.6367
1.80578
1.8347
1.74642
1.43977
0.894612
0.258392
-0.240145
-0.403366
-0.0254319
1.01868
2.6986
4.83654
7.19245
9.55232
11.8854
14.1677
16.2229
18.0306
19.5998
20.9548
33.9555
33.8484
33.7005
33.5007
33.2361
32.8808
32.3982
31.7384
30.8391
29.6383
28.0817
26.4854
25.2254
24.1411
23.2865
22.6707
22.2716
22.0547
21.971
21.988
22.1096
1.37614
1.0849
0.776357
0.467045
0.171562
-0.0979164
-0.33193
-0.519258
1.84615
2.10051
2.2453
2.32094
2.25323
1.99172
1.53438
1.04245
0.754994
0.860142
1.52097
2.79606
4.59946
6.73878
8.99878
11.2062
13.3634
15.4566
17.3314
18.9778
20.4072
21.643
34.0498
33.9654
33.848
33.6894
33.4808
33.2037
32.8321
32.3301
31.6518
30.7444
29.5633
28.0779
26.6025
25.467
24.5049
23.7529
23.2117
22.8589
22.6645
22.5856
22.595
22.6978
1.52095
1.18188
0.838327
0.504116
0.191675
-0.0888607
-0.32501
1.99819
2.31493
2.54249
2.73155
2.82269
2.7875
2.58639
2.22862
1.89332
1.81888
2.17336
3.07246
4.51769
6.38716
8.48986
10.6393
12.6975
14.6912
16.6133
18.3278
19.8312
21.1368
22.2665
34.1243
34.0586
33.9656
33.8392
33.6736
33.4552
33.1651
32.7773
32.258
31.566
30.6586
29.5065
28.0983
26.739
25.7147
24.8573
24.1909
23.711
23.3959
23.2191
23.1434
23.1456
23.2318
1.62497
1.25009
0.880373
0.527808
0.202921
-0.0809925
2.10725
2.47033
2.75829
3.02818
3.22946
3.34537
3.35403
3.22017
2.97183
2.79975
2.93248
3.51049
4.60258
6.1651
8.05653
10.0972
12.1294
14.0449
15.8876
17.6552
19.2263
20.6024
21.7977
22.8324
34.1823
34.1322
34.0591
33.9585
33.8264
33.6529
33.4239
33.1204
32.7173
32.1833
31.4827
30.5826
29.4671
28.1386
26.8883
25.9626
25.195
24.6003
24.1711
23.8868
23.724
23.6504
23.6458
23.7171
1.69803
1.29625
0.907134
0.540992
0.211593
2.18388
2.58178
2.91437
3.24317
3.5231
3.74417
3.89398
3.95001
3.88969
3.75749
3.74995
4.07772
4.84966
6.09176
7.7274
9.60789
11.5704
13.4841
15.2649
16.9687
18.5964
20.0389
21.3011
22.3973
23.3465
34.2263
34.1896
34.133
34.0531
33.9477
33.8091
33.6268
33.3867
33.07
32.6529
32.1072
31.4032
30.5169
29.4431
28.1944
27.0451
26.2064
25.5158
24.9815
24.5944
24.3354
24.1838
24.1113
24.1005
24.1583
1.74746
1.32556
0.92196
0.550305
2.23581
2.66011
3.02612
3.39838
3.73577
4.03217
4.28066
4.46611
4.57335
4.59114
4.57852
4.73196
5.23821
6.17313
7.52628
9.1992
11.045
12.9199
14.7168
16.3717
17.948
19.4488
20.7755
21.9353
22.9422
23.814
34.258
34.2329
34.1902
34.1275
34.0435
33.9325
33.7865
33.5949
33.3435
33.0142
32.5849
32.0308
31.328
30.4608
29.4322
28.2615
27.2049
26.4428
25.8182
25.3351
24.9832
24.7452
24.6026
24.5307
24.514
24.5597
1.77886
1.34175
0.931754
2.26866
2.71344
3.10453
3.5092
3.88924
4.2408
4.56033
4.8369
5.06018
5.22144
5.32017
5.42763
5.73446
6.39963
7.46709
8.8972
10.5791
12.3735
14.1559
15.8402
17.3779
18.8372
20.2226
21.4447
22.5119
23.4379
24.2395
34.2788
34.2639
34.2331
34.1846
34.1181
34.0293
33.912
33.7581
33.5568
33.2943
32.9533
32.5137
31.9545
31.2574
30.4135
29.432
28.3364
27.3641
26.6692
26.1016
25.6619
25.3398
25.1193
24.9841
24.9121
24.8901
24.9249
1.79631
1.35197
2.28588
2.74765
3.15777
3.58669
3.99864
4.3914
4.76308
5.10568
5.41166
5.67442
5.89139
6.07212
6.29726
6.74697
7.54991
8.72121
10.1993
11.8684
13.6
15.2887
16.8653
18.2941
19.6461
20.9265
22.0535
23.0366
23.8892
24.6267
34.2897
34.2833
34.2629
34.2265
34.1746
34.1038
34.0094
33.8853
33.7231
33.512
33.2388
32.8873
32.4398
31.8788
31.1912
30.3737
29.44
28.4156
27.5198
26.884
26.3656
25.9632
25.6664
25.4606
25.3313
25.2591
25.2321
25.2571
1.80778
2.30437
2.76635
3.19201
3.63896
4.07508
4.49882
4.9095
5.30087
5.66718
6.00344
6.30665
6.58001
6.8422
7.18019
7.75992
8.6792
9.92822
11.4302
13.0699
14.7318
16.3272
17.8018
19.1299
20.3833
21.5676
22.6081
23.5147
24.3003
24.9793
34.2899
34.2789
34.2536
34.2143
34.1586
34.083
33.9828
33.8515
33.6809
33.4603
33.1771
32.8166
32.3634
31.8037
31.1288
30.34
29.4539
28.4966
27.6698
27.086
26.6104
26.24
25.9648
25.7715
25.6471
25.5745
25.543
25.5592
2.78566
3.21161
3.67217
4.12654
4.57382
5.01404
5.44194
5.85318
6.24361
6.61053
6.95452
7.28399
7.62549
8.06967
8.76511
9.77975
11.0833
12.5895
14.1877
15.7758
17.2801
18.6586
19.8934
21.056
22.1524
23.1139
23.9505
24.6748
25.3002
34.2796
34.264
34.2367
34.1946
34.1351
34.0547
33.9485
33.81
33.631
33.4013
33.1091
32.7412
32.2847
31.7291
31.0696
30.311
29.4716
28.5769
27.8125
27.2746
26.8362
26.4935
26.237
26.0544
25.9342
25.861
25.8254
25.8337
3.22387
3.69028
4.15917
4.62443
5.08705
5.54277
5.98791
6.41899
6.83358
7.23111
7.61551
7.99989
8.41722
8.95935
9.7555
10.8457
12.1835
13.6784
15.2265
16.7388
18.1551
19.4433
20.5917
21.6707
22.6864
23.5754
24.348
25.016
25.5921
34.2579
34.2396
34.2108
34.1661
34.103
34.0178
33.9056
33.76
33.5729
33.3348
33.0348
32.6613
32.2038
31.6548
31.0128
30.2852
29.491
28.6548
27.9466
27.4493
27.0436
26.7251
26.4847
26.3113
26.1947
26.121
26.0817
26.0829
3.69831
4.17686
4.65651
5.13634
5.61335
6.08431
6.54634
6.99707
7.4355
7.8632
8.28704
8.7242
9.21279
9.84353
10.7252
11.8726
13.2277
14.6989
16.1909
17.6274
18.9593
20.1628
21.2311
22.233
23.1744
23.9968
24.7105
25.3268
25.8575
34.2267
34.2053
34.1747
34.1279
34.0613
33.9715
33.8535
33.701
33.5065
33.2608
32.9543
32.577
32.1207
31.5806
30.9577
30.2614
29.5107
28.7288
28.0714
27.6101
27.2332
26.9359
26.7096
26.5444
26.4308
26.3567
26.3141
26.3089
4.18424
4.67384
5.16762
5.66095
6.15184
6.63767
7.11615
7.58607
8.04771
8.50468
8.9664
9.45351
10.0079
10.7173
11.6697
12.8578
14.2157
15.6537
17.0859
18.4474
19.6988
20.8229
21.817
22.7477
23.6205
24.3816
25.0411
25.6098
26.0985
34.187
34.1612
34.1284
34.0793
34.0095
33.9153
33.7918
33.6329
33.4315
33.1793
32.8677
32.4885
32.0354
31.506
30.9035
30.2384
29.5293
28.7977
28.1863
27.7571
27.4057
27.1271
26.9134
26.7553
26.6445
26.5699
26.5245
26.5135
4.6807
5.18446
5.69121
6.19752
6.70174
7.20176
7.69611
8.18443
8.66842
9.15335
9.65093
10.1845
10.7986
11.5762
12.5852
13.7994
15.1481
16.546
17.9163
19.2044
20.3792
21.4292
22.3544
23.219
24.0286
24.7331
25.3426
25.8672
26.3172
34.1389
34.1076
34.0719
34.0202
33.9473
33.8489
33.7202
33.5555
33.3481
33.0905
32.7752
32.3958
31.9478
31.4308
30.8495
30.2152
29.5457
28.8606
28.2911
27.8906
27.5619
27.3
27.0973
26.9457
26.8374
26.7625
26.7146
26.6986
5.1908
5.70745
6.22651
6.74513
7.26202
7.7755
8.2849
8.7907
9.29584
9.80707
10.338
10.914
11.5812
12.4168
13.4691
14.6966
16.0266
17.3791
18.6865
19.9033
21.0057
21.9862
22.8475
23.6509
24.4019
25.0541
25.6173
26.1011
26.5153
34.0826
34.0451
34.0055
33.9509
33.8747
33.7723
33.6389
33.469
33.2564
32.9946
32.6772
32.2992
31.858
31.3546
30.7951
30.1909
29.559
28.9171
28.3855
28.011
27.7026
27.4556
27.263
27.1172
27.0112
26.9361
26.886
26.8656
5.71331
6.24202
6.77265
7.30289
7.8315
8.35759
8.881
9.40316
9.92797
10.4636
11.025
11.6391
12.3525
13.2359
14.3194
15.5492
16.8528
18.1563
19.4008
20.549
21.5828
22.4984
23.3001
24.0467
24.7433
25.3471
25.8674
26.3136
26.6946
34.0183
33.9739
33.9298
33.8717
33.7921
33.6859
33.5481
33.3737
33.1568
32.892
32.5739
32.1989
31.7659
31.2773
30.7398
30.165
29.5685
28.9668
28.4698
28.1186
27.8286
27.5951
27.4116
27.2711
27.1674
27.0922
27.0403
27.016
6.24749
6.78712
7.32901
7.86964
8.40904
8.94672
9.48304
10.0202
10.563
11.1207
11.7095
12.3571
13.1098
14.0311
15.1349
16.3577
17.6288
18.8808
20.0633
21.1456
22.1146
22.9694
23.7157
24.4095
25.0556
25.6145
26.095
26.5062
26.8564
33.9461
33.8946
33.8451
33.7831
33.6999
33.59
33.4483
33.2699
33.0498
32.7831
32.4657
32.0952
31.6717
31.1986
30.6832
30.1367
29.5739
29.0094
28.5442
28.2142
27.9408
27.7196
27.5444
27.4089
27.3073
27.2322
27.1788
27.151
6.79269
7.34306
7.89413
8.44415
8.9934
9.54149
10.0894
10.64
11.199
11.7763
12.3891
13.0654
13.8506
14.8006
15.9149
17.1229
18.3568
19.5562
20.6777
21.6969
22.6048
23.4026
24.0973
24.7419
25.3411
25.8582
26.3019
26.6806
27.0022
33.8664
33.8075
33.7522
33.6857
33.5988
33.4852
33.3399
33.1583
32.9358
32.6684
32.353
31.9883
31.5753
31.1183
30.6249
30.1059
29.5748
29.0449
28.6088
28.2982
28.0401
27.83
27.6625
27.5317
27.4322
27.3574
27.3028
27.2719
7.3475
7.90748
8.46663
9.0253
9.58321
10.1405
10.6986
11.261
11.8341
12.4285
13.0617
13.7618
14.5728
15.5432
16.6593
17.8459
19.0392
20.1853
21.2474
22.2064
23.0566
23.8012
24.4476
25.0464
25.6019
26.0803
26.4896
26.8381
27.1332
33.7794
33.713
33.6516
33.5803
33.4894
33.3722
33.2238
33.0396
32.8156
32.5486
32.2363
31.8784
31.4769
31.0365
30.5648
30.0722
29.5711
29.0734
28.6642
28.3714
28.1272
27.9275
27.7671
27.6407
27.5432
27.4689
27.4133
27.3799
7.91021
8.47846
9.04574
9.61184
10.1771
10.7422
11.309
11.8814
12.4664
13.0752
13.7253
14.4445
15.2749
16.2576
17.3681
18.5282
19.6784
20.7711
21.7757
22.6774
23.4732
24.1678
24.7692
25.3253
25.8401
26.2823
26.6597
26.9802
27.2506
33.6854
33.6117
33.5439
33.4675
33.3724
33.2518
33.1006
32.9144
32.6898
32.4242
32.1162
31.7661
31.3767
30.9531
30.5028
30.0355
29.5628
29.0951
28.7107
28.4342
28.203
28.0129
27.8592
27.7369
27.6416
27.5678
27.5115
27.4759
8.48087
9.05649
9.6302
10.2025
10.7738
11.3451
11.919
12.4997
13.0944
13.7146
14.3781
15.1118
15.9555
16.9435
18.0418
19.1712
20.2767
21.3166
22.2656
23.1127
23.8572
24.505
25.0643
25.5805
26.0573
26.4658
26.8136
27.1079
27.3555
33.5847
33.504
33.4296
33.348
33.2487
33.1248
32.9711
32.7836
32.5592
32.2959
31.993
31.6517
31.2749
30.8682
30.4387
29.9958
29.5498
29.1102
28.7488
28.4875
28.2682
28.087
27.9396
27.8214
27.7282
27.6551
27.5984
27.5608
9.05876
9.63961
10.2189
10.7957
11.3716
11.9478
12.5271
13.114
13.7162
14.3452
15.0185
15.7622
16.6135
17.6004
18.6812
19.7765
20.8362
21.8242
22.7197
23.5149
24.2112
24.815
25.3349
25.8139
26.2553
26.6324
26.9525
27.2225
27.4487
33.4778
33.3903
33.3095
33.2225
33.1191
32.992
32.8362
32.6479
32.4244
32.1643
31.8675
31.5355
31.1718
30.7818
30.3727
29.9531
29.5324
29.1191
28.779
28.5319
28.3237
28.1509
28.0094
27.8951
27.804
27.7317
27.6747
27.6356
9.64192
10.2275
10.8101
11.3902
11.9693
12.5489
13.1318
13.723
14.3303
14.9653
15.6451
16.3944
17.2482
18.2284
19.2871
20.3458
21.3594
22.2965
23.1406
23.8866
24.5373
25.0999
25.583
26.027
26.4354
26.7832
27.0776
27.325
27.5314
33.3652
33.2711
33.1841
33.0918
32.9842
32.8542
32.6967
32.5082
32.2863
32.0301
31.74
31.4178
31.0674
30.6942
30.3049
29.9076
29.5107
29.122
28.8019
28.5679
28.3701
28.2052
28.0694
27.9588
27.8699
27.7985
27.7414
27.701
10.2289
10.8176
11.4025
11.9846
12.5654
13.1467
13.7316
14.3252
14.9354
15.5736
16.2565
17.0075
17.8591
18.8277
19.8605
20.8808
21.8482
22.7358
23.5306
24.23
24.8377
25.3615
25.8102
26.2216
26.599
26.9195
27.1898
27.4162
27.6041
33.2471
33.1469
33.054
32.9565
32.845
32.7123
32.5535
32.3653
32.1456
31.894
31.6111
31.2992
30.9622
30.6054
30.2353
29.8593
29.485
29.1194
28.8179
28.5961
28.4082
28.2508
28.1204
28.0134
27.9266
27.8562
27.7993
27.7578
10.8179
11.4088
11.9947
12.5774
13.1586
13.74
14.3251
14.9192
15.5301
16.1689
16.8518
17.6008
18.4459
19.3987
20.4024
21.3832
22.3045
23.1441
23.8919
24.547
25.1143
25.6017
26.018
26.3989
26.7474
27.0424
27.2903
27.497
27.6678
33.1242
33.0184
32.9198
32.8174
32.7021
32.567
32.4073
32.2198
32.003
31.7565
31.4813
31.18
30.8564
30.5158
30.1642
29.8085
29.4556
29.1116
28.8275
28.6173
28.4386
28.2882
28.163
28.0596
27.975
27.9057
27.8489
27.8066
11.4084
12.0001
12.5854
13.1674
13.7473
14.3274
14.9111
15.5038
16.1131
16.7501
17.43
18.1737
19.0085
19.9417
20.9141
21.8544
22.7305
23.5236
24.2264
24.8395
25.3687
25.8219
26.2079
26.5603
26.8817
27.1529
27.3799
27.5683
27.7231
32.9969
32.8859
32.782
32.6751
32.5563
32.4191
32.2588
32.0726
31.8591
31.6181
31.351
31.0605
30.7503
30.4255
30.0918
29.7554
29.4226
29.0991
28.8313
28.632
28.4619
28.3183
28.1981
28.0981
28.0156
27.9475
27.8911
27.848
11.9987
12.589
13.1735
13.7532
14.3305
14.9077
15.4883
16.0777
16.6834
17.3162
17.9905
18.7257
19.547
20.4576
21.3967
22.2962
23.1278
23.8762
24.536
25.1093
25.6025
26.0237
26.3813
26.7068
27.003
27.2519
27.4594
27.6308
27.7707
32.8657
32.75
32.6413
32.5302
32.4083
32.2693
32.1089
31.9244
31.7145
31.4795
31.2208
30.9411
30.6442
30.3348
30.0182
29.7003
29.3866
29.0822
28.8297
28.6407
28.4789
28.3416
28.2261
28.1295
28.0492
27.9823
27.9263
27.8828
12.5879
13.1764
13.7574
14.3335
14.9068
15.4795
16.0554
16.6398
17.2401
17.8664
18.5326
19.2567
20.0615
20.947
21.8513
22.71
23.4982
24.2034
24.8223
25.358
25.8173
26.2082
26.5392
26.8397
27.1122
27.3403
27.5296
27.6851
27.8111
32.7312
32.6113
32.4983
32.3833
32.2587
32.1183
31.9582
31.7757
31.5699
31.3411
31.091
30.8221
30.5382
30.2438
29.9437
29.6433
29.3477
29.0613
28.8233
28.6439
28.4899
28.3587
28.2478
28.1544
28.0763
28.0106
27.9551
27.9112
13.1748
13.7593
14.3359
14.9071
15.4749
16.0418
16.6116
17.1893
17.7822
18.4002
19.056
19.7665
20.5523
21.4106
22.2793
23.0973
23.8432
24.5069
25.0869
25.587
26.0143
26.3769
26.6828
26.9598
27.2102
27.4189
27.5912
27.7318
27.845
32.5938
32.4702
32.3533
32.235
32.108
31.9667
31.8072
31.6271
31.4257
31.2035
30.962
30.7039
30.4328
30.1528
29.8686
29.5848
29.3063
29.0369
28.8124
28.6422
28.4955
28.3701
28.2636
28.1734
28.0973
28.0329
27.9781
27.9339
13.757
14.3367
14.908
15.4728
16.0339
16.5936
17.1557
17.7252
18.3092
18.9169
19.5604
20.2551
21.0198
21.8493
22.6817
23.4596
24.1644
24.7884
25.3312
25.7977
26.1948
26.5307
26.8132
27.0682
27.2978
27.4884
27.6448
27.7716
27.8727
32.454
32.3273
32.2071
32.0859
31.957
31.8151
31.6565
31.4792
31.2825
31.0669
30.8341
30.5867
30.3281
30.0621
29.793
29.5251
29.2626
29.0092
28.7975
28.6359
28.4962
28.3764
28.2741
28.1869
28.113
28.0498
27.9956
27.9512
14.3342
14.9083
15.4721
16.0295
16.5826
17.134
17.687
18.2469
18.8204
19.4161
20.0455
20.7226
21.4645
22.2639
23.0598
23.7981
24.4632
25.0491
25.5567
25.9912
26.3599
26.6708
26.9313
27.1656
27.3758
27.5494
27.691
27.8049
27.8948
32.3123
32.183
32.06
31.9364
31.806
31.6639
31.5066
31.3324
31.1406
30.9318
30.7078
30.4708
30.2243
29.9717
29.7171
29.4642
29.217
28.9786
28.7789
28.6255
28.4925
28.378
28.2796
28.1955
28.1235
28.0617
28.0081
27.9637
14.9048
15.4712
16.0272
16.5762
17.1202
17.6619
18.2048
18.7537
19.3152
19.8975
20.5112
21.1693
21.887
22.6553
23.4145
24.1142
24.7409
25.2903
25.7645
26.1688
26.5108
26.798
27.0378
27.2528
27.4449
27.6026
27.7303
27.8322
27.9117
32.1692
32.0378
31.9126
31.7871
31.6556
31.5137
31.358
31.1871
31.0004
30.7985
30.5831
30.3565
30.1217
29.882
29.6411
29.4026
29.1697
28.9455
28.7571
28.6114
28.4848
28.3752
28.2808
28.1995
28.1295
28.0689
28.016
27.9715
15.4674
16.0256
16.5726
17.1119
17.6458
18.1767
18.7082
19.2451
19.7934
20.361
20.9577
21.5953
22.2876
23.0243
23.7472
24.4091
24.9988
25.5134
25.9557
26.3316
26.6483
26.9133
27.1338
27.3306
27.5056
27.6485
27.7633
27.854
27.9237
32.0252
31.8923
31.7652
31.6383
31.5062
31.3648
31.2112
31.0438
30.8623
30.6673
30.4604
30.2438
30.0204
29.7931
29.5654
29.3403
29.121
28.9101
28.7323
28.594
28.4734
28.3686
28.2778
28.1992
28.1311
28.0718
28.0196
27.9751
16.0217
16.5703
17.1072
17.6359
18.1585
18.6777
19.1969
19.7206
20.2546
20.8064
21.3849
22.0011
22.6672
23.3719
24.0588
24.6839
25.238
25.7194
26.1315
26.4805
26.7734
27.0175
27.2197
27.3995
27.5587
27.6876
27.7904
27.8706
27.9312
31.8808
31.7467
31.6184
31.4905
31.3582
31.2177
31.0663
30.9026
30.7264
30.5384
30.3399
30.1331
29.9206
29.7052
29.4899
29.2776
29.0711
28.8727
28.705
28.5736
28.4586
28.3584
28.2711
28.1951
28.1289
28.0708
28.0192
27.9748
16.5662
17.1041
17.6302
18.1472
18.6578
19.1643
19.6702
20.1798
20.6987
21.2336
21.7931
22.3869
23.0262
23.6988
24.3503
24.9397
25.4596
25.9094
26.2929
26.6163
26.8868
27.1114
27.2965
27.4603
27.6046
27.7205
27.812
27.8824
27.9345
31.7362
31.6015
31.4724
31.344
31.2119
31.0726
30.9237
30.764
30.5932
30.412
30.2217
30.0244
29.8224
29.6183
29.4149
29.2147
29.0202
28.8336
28.6753
28.5505
28.4409
28.3449
28.261
28.1875
28.1231
28.0661
28.0152
27.9708
17.1001
17.6268
18.1406
18.6453
19.1429
19.636
20.1279
20.6226
21.1254
21.6428
22.1824
22.7534
23.3655
24.006
24.6227
25.1776
25.6647
26.0843
26.4407
26.7401
26.9895
27.1956
27.3646
27.5135
27.6438
27.7476
27.8285
27.8897
27.934
31.5921
31.4572
31.3277
31.1992
31.0676
30.9299
30.7837
30.628
30.4627
30.2882
30.106
29.9179
29.7259
29.5327
29.3404
29.1516
28.9685
28.793
28.6436
28.525
28.4204
28.3285
28.2477
28.1767
28.1139
28.058
28.0077
27.9634
17.6225
18.1368
18.6379
19.1294
19.6135
20.0925
20.5696
21.0487
21.5349
22.034
22.5532
23.1008
23.6856
24.2943
24.8769
25.3985
25.8542
26.2452
26.5758
26.8525
27.082
27.2708
27.4247
27.5595
27.6767
27.7692
27.8402
27.8929
27.9297
31.4486
31.3139
31.1845
31.0563
30.9257
30.7897
30.6465
30.495
30.3351
30.1673
29.9929
29.8136
29.6313
29.4483
29.2667
29.0887
28.9163
28.7511
28.6101
28.4972
28.3975
28.3094
28.2316
28.1628
28.1016
28.0468
27.9971
27.9528
18.1321
18.6336
19.1215
19.5991
20.069
20.5333
20.9951
21.4581
21.927
22.4074
22.9059
23.4298
23.9871
24.5644
25.114
25.6035
26.0291
26.3928
26.6991
26.9543
27.1651
27.3375
27.4773
27.5989
27.7039
27.7857
27.8475
27.8922
27.9221
31.3062
31.1721
31.0431
30.9156
30.7862
30.6524
30.5123
30.365
30.2105
30.0493
29.8825
29.7117
29.5386
29.3653
29.1938
29.026
28.8636
28.7081
28.5749
28.4676
28.3723
28.2878
28.2129
28.1462
28.0865
28.0326
27.9834
27.9392
18.6288
19.117
19.5905
20.054
20.5091
20.9583
21.4043
21.8507
22.3019
22.7632
23.2406
23.7408
24.2708
24.8173
25.3347
25.7932
26.1902
26.5279
26.8112
27.0462
27.2393
27.3964
27.5229
27.6322
27.7256
27.7974
27.8506
27.8878
27.9113
31.1652
31.0321
30.9039
30.7774
30.6495
30.518
30.3812
30.2382
30.0891
29.9342
29.7748
29.6121
29.4479
29.2838
29.1218
28.9635
28.8105
28.6642
28.5383
28.4361
28.3451
28.264
28.1917
28.127
28.0687
28.0157
27.967
27.9228
19.1117
19.5855
20.0449
20.4937
20.9337
21.3672
21.797
22.2265
22.6598
23.1018
23.5579
24.0344
24.5374
25.0536
25.5398
25.9687
26.3383
26.6514
26.9129
27.1288
27.3052
27.4479
27.5619
27.6596
27.7423
27.8048
27.8499
27.8801
27.8974
31.0258
30.894
30.7669
30.6417
30.5157
30.3867
30.2532
30.1146
29.9708
29.8222
29.6699
29.515
29.3591
29.2038
29.0508
28.9014
28.7573
28.6194
28.5004
28.4031
28.316
28.2381
28.1683
28.1054
28.0484
27.9962
27.948
27.9037
19.5805
20.0396
20.4844
20.918
21.3425
21.76
22.1733
22.5856
23.0008
23.4233
23.8582
24.3111
24.7874
25.2741
25.7302
26.1305
26.4741
26.7638
27.0047
27.2026
27.3634
27.4925
27.5947
27.6816
27.7542
27.8079
27.8454
27.8691
27.8807
30.8884
30.7581
30.6325
30.5089
30.3849
30.2586
30.1286
29.9943
29.8557
29.7132
29.5677
29.4203
29.2724
29.1254
28.9807
28.8398
28.7039
28.5741
28.4614
28.3686
28.2853
28.2103
28.1428
28.0816
28.0257
27.9743
27.9264
27.882
20.035
20.4792
20.9085
21.3266
21.7352
22.1366
22.5333
22.9283
23.3252
23.7282
24.142
24.5715
25.0216
25.4795
25.9065
26.2796
26.5984
26.8659
27.0873
27.2683
27.4143
27.5306
27.6218
27.6984
27.7616
27.8071
27.8376
27.8551
27.8614
30.7531
30.6246
30.5007
30.379
30.2572
30.1337
30.0073
29.8774
29.7439
29.6073
29.4683
29.328
29.1876
29.0484
28.9117
28.7787
28.6505
28.5281
28.4214
28.3328
28.2529
28.1808
28.1153
28.0557
28.0009
27.9502
27.9025
27.858
20.4745
20.903
21.317
21.7193
22.112
22.4971
22.877
23.2546
23.6333
24.0169
24.4096
24.8161
25.2405
25.6705
26.0695
26.4166
26.7117
26.9583
27.1613
27.3262
27.4584
27.5627
27.6435
27.7105
27.7648
27.8027
27.8264
27.8382
27.8394
30.6202
30.4938
30.3718
30.2521
30.1328
30.0122
29.8894
29.7637
29.6352
29.5043
29.3716
29.2381
29.1048
28.973
28.8437
28.7181
28.5971
28.4816
28.3806
28.2959
28.2192
28.1495
28.0861
28.0279
27.9741
27.9239
27.8764
27.8317
20.8985
21.3117
21.7097
22.0961
22.4727
22.8415
23.2046
23.5648
23.9253
24.2896
24.6616
25.0454
25.4449
25.8477
26.2199
26.5421
26.8148
27.0415
27.2271
27.3769
27.496
27.5891
27.6601
27.7181
27.7641
27.7947
27.8123
27.8185
27.8151
30.4899
30.3656
30.2457
30.1283
30.0115
29.894
29.7748
29.6534
29.5298
29.4043
29.2776
29.1506
29.024
28.8991
28.7768
28.6581
28.5438
28.4348
28.3388
28.2578
28.1841
28.1168
28.0551
27.9982
27.9452
27.8955
27.8482
27.8033
21.307
21.7045
22.0865
22.457
22.8176
23.1699
23.5163
23.8592
24.2017
24.5469
24.8985
25.2601
25.6352
26.0119
26.3583
26.6568
26.9082
27.1161
27.2852
27.4208
27.5276
27.6101
27.6719
27.7215
27.7596
27.7835
27.7951
27.7963
27.7884
30.3622
30.2403
30.1227
30.0077
29.8936
29.7791
29.6635
29.5463
29.4275
29.3073
29.1863
29.0653
28.9452
28.8267
28.711
28.5987
28.4907
28.3875
28.2964
28.2187
28.1477
28.0826
28.0225
27.9667
27.9145
27.8651
27.8179
27.7727
21.6995
22.0811
22.4475
22.8021
23.1465
23.4826
23.8123
24.1381
24.4627
24.7892
25.1207
25.4607
25.8121
26.1636
26.4853
26.7612
26.9924
27.1825
27.3361
27.4583
27.5535
27.626
27.6792
27.7208
27.7516
27.7691
27.7752
27.7716
27.7595
30.2372
30.1179
30.0028
29.8903
29.7789
29.6676
29.5556
29.4425
29.3282
29.2131
29.0975
28.9823
28.8681
28.7558
28.6461
28.5398
28.4376
28.34
28.2533
28.1787
28.1102
28.047
27.9884
27.9336
27.882
27.8329
27.7856
27.7401
22.0764
22.4422
22.7928
23.1315
23.4599
23.7797
24.0929
24.4018
24.7088
25.0168
25.3288
25.6477
25.9762
26.3034
26.6015
26.8559
27.0679
27.2412
27.3802
27.4897
27.5741
27.6371
27.6823
27.7164
27.7403
27.7518
27.7527
27.7445
27.7284
30.1153
29.9985
29.886
29.776
29.6675
29.5593
29.4509
29.3417
29.2319
29.1216
29.0113
28.9015
28.7929
28.6863
28.5823
28.4816
28.3847
28.2922
28.2095
28.1378
28.0716
28.0101
27.9528
27.8989
27.8478
27.7989
27.7515
27.7056
22.4378
22.7875
23.1223
23.4452
23.7578
24.0615
24.3584
24.6506
24.9403
25.2303
25.5232
25.8216
26.128
26.4319
26.7075
26.9414
27.1352
27.2926
27.4179
27.5155
27.5896
27.6438
27.6813
27.7083
27.7258
27.7316
27.7276
27.7151
27.6953
29.9961
29.8822
29.7722
29.665
29.5593
29.4543
29.3494
29.2441
29.1385
29.0328
28.9274
28.8227
28.7194
28.6181
28.5194
28.4238
28.3319
28.2441
28.1651
28.096
28.0319
27.972
27.9158
27.8626
27.8119
27.7631
27.7155
27.6691
22.7833
23.1171
23.4364
23.7436
24.0404
24.3283