/*--------------------------------*- C++ -*----------------------------------*\
| =========                 |                                                 |
| \\      /  F ield         | OpenFOAM: The Open Source CFD Toolbox           |
|  \\    /   O peration     | Version:  4.1                                   |
|   \\  /    A nd           | Web:      www.OpenFOAM.org                      |
|    \\/     M anipulation  |                                                 |
\*---------------------------------------------------------------------------*/
FoamFile
{
    version     2.0;
    format      ascii;
    class       volScalarField;
    location    "0";
    object      Phi;
}
// * * * * * * * * * * * * * * * * * * * * * * * * * * * * * * * * * * * * * //

dimensions      [0 2 -1 0 0 0 0];

internalField   nonuniform List<scalar> 
12225
(
0.657818
0.642255
0.65782
0.627268
0.642258
0.657852
0.612831
0.627272
0.64229
0.657903
0.59891
0.612835
0.627305
0.642342
0.657976
0.585475
0.598916
0.61287
0.627359
0.642417
0.658075
0.572492
0.585482
0.598953
0.612927
0.627437
0.642517
0.658202
0.559924
0.5725
0.585522
0.599013
0.613009
0.627542
0.642647
0.658336
0.547732
0.559935
0.572545
0.585588
0.599102
0.61312
0.627677
0.642785
0.65848
0.535876
0.547746
0.559984
0.572618
0.585684
0.599221
0.613264
0.627822
0.642933
0.658668
0.524309
0.535894
0.547803
0.560066
0.572724
0.585816
0.599378
0.613419
0.627976
0.643124
0.658905
0.512975
0.524332
0.53596
0.547897
0.560187
0.572871
0.585988
0.599546
0.613584
0.628177
0.643368
0.659201
0.50181
0.513007
0.524411
0.53607
0.548035
0.560353
0.573064
0.586174
0.599725
0.613798
0.628432
0.643672
0.659567
0.490725
0.501853
0.513103
0.524542
0.536233
0.548227
0.560573
0.573273
0.586372
0.599958
0.614071
0.628751
0.644047
0.660011
0.479597
0.490787
0.501975
0.513265
0.524737
0.536459
0.548482
0.560812
0.573496
0.58663
0.600255
0.614413
0.629146
0.644503
0.660543
0.468226
0.47969
0.49095
0.502181
0.513505
0.525009
0.536758
0.548759
0.561066
0.573785
0.586959
0.600628
0.614836
0.629627
0.64505
0.661166
0.456232
0.468383
0.479924
0.491224
0.502487
0.513839
0.525369
0.537085
0.549053
0.561395
0.574154
0.587372
0.601091
0.615353
0.630203
0.64569
0.661872
0.442665
0.456553
0.468751
0.48031
0.491628
0.502909
0.514281
0.52576
0.53743
0.549433
0.561814
0.574617
0.587884
0.601655
0.615973
0.630878
0.646417
0.662582
0.443629
0.426729
0.457228
0.46934
0.480869
0.492178
0.503462
0.514756
0.52617
0.537873
0.549915
0.562341
0.575192
0.58851
0.602333
0.616699
0.631644
0.647147
0.663178
0.445154
0.431258
0.419317
0.420664
0.458221
0.470157
0.481611
0.492886
0.50405
0.515252
0.526695
0.538435
0.550519
0.562992
0.575893
0.589259
0.603126
0.617522
0.632414
0.647761
0.663632
0.446991
0.43483
0.424562
0.412662
0.415958
0.416082
0.459486
0.471196
0.482541
0.493627
0.504657
0.51588
0.527355
0.539134
0.551264
0.563784
0.576731
0.590135
0.604024
0.618349
0.633061
0.648229
0.663968
0.449006
0.437903
0.42818
0.419391
0.406685
0.4107
0.412362
0.412071
0.460979
0.472441
0.483486
0.494378
0.505416
0.516661
0.52817
0.539991
0.552165
0.564727
0.577707
0.591125
0.604923
0.619043
0.633555
0.648575
0.664208
0.451134
0.44072
0.431516
0.422711
0.414969
0.401125
0.405437
0.408044
0.408887
0.408374
0.462656
0.473655
0.484424
0.495302
0.506347
0.517617
0.52916
0.54102
0.55323
0.565819
0.578803
0.592112
0.605678
0.619573
0.63392
0.648823
0.664374
0.453341
0.44341
0.434634
0.425963
0.417983
0.410974
0.395831
0.400265
0.403486
0.405177
0.405547
0.404883
0.464206
0.474827
0.485552
0.496416
0.507471
0.518764
0.530338
0.542226
0.554455
0.567039
0.579894
0.592939
0.606253
0.619965
0.634182
0.648995
0.664484
0.455263
0.446037
0.4376
0.429122
0.421047
0.413728
0.407254
0.390714
0.395198
0.398809
0.401176
0.402264
0.402323
0.401542
0.465653
0.476198
0.486882
0.497736
0.508799
0.520111
0.531704
0.543601
0.555814
0.568245
0.580802
0.593568
0.606679
0.620248
0.634365
0.64911
0.664553
0.456999
0.448239
0.440465
0.432189
0.424117
0.416588
0.409791
0.403728
0.385723
0.390224
0.394085
0.396964
0.398692
0.399359
0.399193
0.398316
0.467295
0.477774
0.488425
0.499269
0.510335
0.521653
0.533243
0.545111
0.557146
0.569244
0.581492
0.594035
0.606988
0.620445
0.634487
0.649182
0.664593
0.458912
0.45019
0.442843
0.43518
0.427169
0.41952
0.412462
0.406082
0.400346
0.380824
0.385329
0.389352
0.392607
0.394877
0.396125
0.396482
0.39614
0.39518
0.469133
0.47956
0.490181
0.501011
0.512069
0.52337
0.534915
0.546578
0.558244
0.570002
0.582005
0.594373
0.607204
0.620578
0.634565
0.649224
0.664613
0.461003
0.452302
0.444933
0.437668
0.43019
0.422491
0.415241
0.408583
0.402544
0.397078
0.376001
0.380498
0.384629
0.388158
0.390868
0.392644
0.393521
0.393636
0.393151
0.392117
0.471166
0.481549
0.492142
0.502947
0.513972
0.525213
0.536525
0.547781
0.559073
0.570564
0.582376
0.594611
0.607351
0.620664
0.634611
0.649247
0.664622
0.46327
0.454577
0.447176
0.439854
0.432728
0.425479
0.418101
0.411213
0.404893
0.399139
0.3939
0.370363
0.375726
0.379925
0.383653
0.38671
0.388946
0.39032
0.390903
0.390823
0.390216
0.389117
0.473387
0.48373
0.494284
0.505042
0.515992
0.52697
0.537835
0.548685
0.559687
0.570971
0.582639
0.594773
0.607446
0.620716
0.634636
0.649256
0.664623
0.465705
0.457013
0.449575
0.442195
0.434968
0.428019
0.421017
0.41395
0.407382
0.401352
0.395841
0.390797
0.364473
0.370137
0.375249
0.379119
0.382445
0.385068
0.386897
0.387941
0.388282
0.388039
0.387327
0.386168
0.475781
0.486077
0.49657
0.507237
0.517896
0.528389
0.538817
0.549354
0.560133
0.57126
0.582819
0.59488
0.607504
0.620744
0.634648
0.649259
0.664623
0.468293
0.459602
0.452126
0.444689
0.43737
0.430276
0.423526
0.416772
0.409995
0.40371
0.397932
0.392631
0.387757
0.359262
0.364289
0.369753
0.374575
0.378106
0.381046
0.383278
0.38476
0.385526
0.385666
0.385283
0.384478
0.383263
0.47832
0.488547
0.498938
0.509287
0.519423
0.529447
0.53954
0.549839
0.56045
0.571459
0.582938
0.594946
0.607538
0.620758
0.634652
0.64926
0.471007
0.46233
0.454822
0.447333
0.43993
0.432706
0.425771
0.419228
0.412713
0.406202
0.400169
0.394611
0.389494
0.38477
0.354624
0.359108
0.363979
0.369206
0.37372
0.376913
0.379491
0.381376
0.382558
0.38309
0.383057
0.382552
0.381663
0.380397
0.480963
0.491078
0.501127
0.510919
0.520556
0.530226
0.540065
0.550184
0.560669
0.571592
0.583013
0.594985
0.607554
0.620764
0.634652
0.473804
0.465169
0.457646
0.450116
0.442641
0.435302
0.428201
0.421441
0.415101
0.408813
0.402545
0.396736
0.391372
0.386418
0.381828
0.350483
0.354492
0.35885
0.363536
0.368506
0.372701
0.375567
0.377811
0.379388
0.380312
0.380641
0.380457
0.379844
0.37888
0.377565
0.483645
0.493399
0.502858
0.512125
0.521389
0.53079
0.540439
0.550423
0.560816
0.571676
0.583057
0.595005
0.607561
0.620765
0.476622
0.468077
0.460571
0.453021
0.445491
0.438056
0.430807
0.423848
0.417268
0.411126
0.405049
0.399003
0.393394
0.388204
0.383396
0.378927
0.346782
0.350368
0.354273
0.358481
0.362965
0.367663
0.371537
0.374092
0.376032
0.377335
0.378032
0.378184
0.377867
0.377157
0.376123
0.374763
0.486086
0.495223
0.504134
0.513009
0.521991
0.531192
0.540699
0.550585
0.56091
0.571727
0.583081
0.595014
0.607563
0.47917
0.470991
0.463556
0.456022
0.448462
0.440952
0.43358
0.426443
0.419637
0.413237
0.407284
0.401402
0.395558
0.390131
0.385097
0.38042
0.37606
0.343476
0.34668
0.350179
0.353959
0.358003
0.362271
0.366688
0.370247
0.372509
0.374171
0.375232
0.375728
0.375723
0.375287
0.374489
0.37339
0.371987
0.487995
0.496563
0.505066
0.513648
0.52242
0.531472
0.540874
0.550689
0.560967
0.571755
0.583092
0.595017
0.481156
0.473617
0.466537
0.459074
0.451523
0.443971
0.436503
0.429214
0.422202
0.415556
0.409333
0.403557
0.397857
0.392197
0.386934
0.382041
0.377485
0.373225
0.340531
0.343385
0.346514
0.349906
0.35355
0.357418
0.361461
0.365593
0.368846
0.370836
0.372246
0.373088
0.373406
0.37326
0.372716
0.371837
0.370678
0.369235
0.489393
0.497539
0.505739
0.514103
0.52272
0.531662
0.540989
0.550753
0.560999
0.571768
0.583096
0.482606
0.475657
0.469216
0.462114
0.454632
0.44708
0.439552
0.432144
0.424955
0.41808
0.411594
0.405542
0.399932
0.3944
0.388908
0.383795
0.379032
0.374585
0.370417
0.337919
0.340449
0.343238
0.346274
0.34955
0.353047
0.35673
0.360542
0.36439
0.367349
0.369086
0.370266
0.370912
0.371069
0.370797
0.370155
0.369201
0.367986
0.366504
0.49041
0.498244
0.506219
0.514421
0.522923
0.531786
0.541059
0.550789
0.561014
0.571773
0.483659
0.477144
0.471294
0.46484
0.457723
0.450234
0.442694
0.435207
0.427875
0.420798
0.414066
0.40774
0.401852
0.396397
0.391019
0.385684
0.380708
0.376063
0.371716
0.367634
0.335619
0.337845
0.340317
0.343023
0.345959
0.349111
0.352453
0.355945
0.359521
0.36309
0.36577
0.367272
0.368243
0.36871
0.368722
0.368334
0.367602
0.366579
0.365311
0.363791
0.491144
0.498747
0.506554
0.514638
0.523057
0.531863
0.541099
0.550807
0.56102
0.484419
0.478224
0.472807
0.466952
0.46049
0.453366
0.445882
0.438368
0.430937
0.423695
0.41674
0.410153
0.403984
0.398251
0.392941
0.387707
0.382515
0.377666
0.37313
0.368876
0.364872
0.333612
0.335551
0.337725
0.340123
0.342742
0.34557
0.34859
0.351771
0.355066
0.358407
0.361703
0.364118
0.365403
0.366182
0.366488
0.366367
0.365873
0.365057
0.363969
0.362651
0.361097
0.491667
0.499098
0.506783
0.51478
0.52314
0.531907
0.54112
0.550814
0.48496
0.479002
0.473905
0.468488
0.462632
0.456169
0.449046
0.441577
0.434104
0.426742
0.4196
0.412774
0.406333
0.400316
0.39473
0.389555
0.384455
0.379396
0.374664
0.370229
0.366062
0.362131
0.331885
0.33355
0.335441
0.337548
0.339868
0.342393
0.345107
0.347989
0.351003
0.354099
0.357207
0.360239
0.362405
0.363488
0.364091
0.364248
0.364005
0.363413
0.36252
0.361371
0.360006
0.358417
0.492033
0.499338
0.506934
0.51487
0.523189
0.53193
0.541128
0.485339
0.479557
0.474696
0.469603
0.464189
0.458336
0.451877
0.444765
0.437323
0.429901
0.42262
0.415588
0.408894
0.402598
0.396728
0.391281
0.386232
0.381256
0.376322
0.371698
0.367357
0.36327
0.359408
0.330424
0.331826
0.333448
0.335279
0.337316
0.339552
0.341976
0.344571
0.347309
0.350153
0.353049
0.355929
0.358706
0.360636
0.361533
0.361973
0.361993
0.361638
0.360955
0.35999
0.358784
0.357373
0.355752
0.492284
0.499497
0.507029
0.514922
0.523214
0.531939
0.485599
0.479945
0.475259
0.470406
0.465318
0.459911
0.454065
0.447616
0.440523
0.433119
0.42576
0.41857
0.411654
0.405094
0.398941
0.393212
0.387896
0.382965
0.378106
0.373287
0.368764
0.364512
0.3605
0.356701
0.329221
0.330369
0.331731
0.333297
0.335064
0.337026
0.339173
0.341493
0.343963
0.346554
0.349226
0.351923
0.354578
0.357112
0.35882
0.359543
0.359833
0.359726
0.359267
0.358499
0.357466
0.356206
0.354753
0.3531
0.49245
0.499598
0.507085
0.514949
0.523224
0.485771
0.480211
0.475655
0.470978
0.466132
0.461053
0.455655
0.449821
0.443388
0.436323
0.428967
0.421681
0.414589
0.407794
0.401369
0.395355
0.389761
0.384569
0.37975
0.374999
0.370288
0.36586
0.361689
0.357748
0.35401
0.328268
0.329169
0.330279
0.33159
0.333097
0.334795
0.336678
0.338733
0.340943
0.343284
0.345726
0.348224
0.350724
0.353161
0.355462
0.356962
0.357523
0.357673
0.357449
0.356892
0.356046
0.354949
0.353637
0.352143
0.35046
0.492555
0.499657
0.507114
0.51496
0.485881
0.480389
0.475925
0.471379
0.466711
0.461876
0.456808
0.451423
0.445605
0.439194
0.432165
0.424867
0.417662
0.410676
0.404005
0.397714
0.391835
0.386369
0.381295
0.376579
0.371931
0.367321
0.362983
0.358889
0.355014
0.351332
0.327559
0.328218
0.329083
0.330146
0.331402
0.332846
0.334473
0.336272
0.33823
0.340327
0.342537
0.344827
0.347152
0.349458
0.351685
0.353762
0.355066
0.355476
0.355496
0.355162
0.354515
0.353594
0.352436
0.351076
0.349543
0.347831
0.492617
0.499688
0.507126
0.485946
0.480501
0.476106
0.471654
0.467118
0.462462
0.457638
0.452585
0.447216
0.441418
0.435036
0.42805
0.420818
0.413703
0.406827
0.400282
0.394123
0.388375
0.383032
0.378069
0.373451
0.368898
0.364384
0.360129
0.356108
0.352295
0.348668
0.32709
0.32751
0.328136
0.328956
0.329967
0.331166
0.332545
0.334097
0.335809
0.337666
0.339647
0.341723
0.34386
0.346013
0.34813
0.350153
0.352018
0.353137
0.353406
0.353304
0.352867
0.352135
0.351144
0.349929
0.348523
0.346952
0.345213
0.49265
0.499701
0.48598
0.480568
0.476221
0.471837
0.467397
0.462873
0.45823
0.453421
0.448383
0.443034
0.437261
0.430913
0.423979
0.416821
0.409802
0.40304
0.396621
0.390592
0.38497
0.379744
0.374886
0.370361
0.365899
0.361474
0.357298
0.353345
0.349591
0.346015
0.326857
0.327042
0.327431
0.328013
0.328785
0.329743
0.330882
0.332193
0.333666
0.335288
0.337042
0.338904
0.340845
0.342829
0.344812
0.346744
0.34857
0.350233
0.351179
0.351314
0.351098
0.350566
0.349753
0.348695
0.347427
0.345976
0.34437
0.342603
0.492664
0.485995
0.480604
0.476289
0.471954
0.467582
0.463155
0.458645
0.454017
0.449225
0.444206
0.43888
0.433136
0.426828
0.419952
0.412874
0.405956
0.399311
0.393018
0.387116
0.381615
0.376501
0.371743
0.367305
0.362928
0.358589
0.354487
0.350599
0.346901
0.343373
0.32681
0.326964
0.327312
0.327848
0.328571
0.329473
0.330549
0.331788
0.33318
0.33471
0.336358
0.338099
0.339904
0.341736
0.343552
0.345304
0.346941
0.348412
0.349193
0.349204
0.348881
0.348257
0.347369
0.346249
0.344929
0.343436
0.341795
0.340003
0.48062
0.476326
0.472024
0.467701
0.463343
0.45893
0.454436
0.449825
0.445051
0.440054
0.434753
0.429042
0.42278
0.415968
0.408977
0.402164
0.395638
0.389469
0.383691
0.378308
0.3733
0.368637
0.364281
0.359985
0.355726
0.351695
0.347868
0.344223
0.340741
0.326734
0.326848
0.327151
0.327641
0.328312
0.329156
0.330166
0.331332
0.332641
0.334075
0.335615
0.337234
0.338903
0.340584
0.342236
0.343814
0.345269
0.346557
0.347183
0.347076
0.346652
0.345943
0.344983
0.343804
0.342435
0.340902
0.339228
0.33741
0.476343
0.472062
0.467772
0.463463
0.45912
0.454723
0.450245
0.445653
0.4409
0.435927
0.430655
0.424982
0.41877
0.412028
0.405129
0.398425
0.392018
0.385972
0.380314
0.375043
0.370137
0.365564
0.361286
0.357067
0.352885
0.34892
0.345151
0.341557
0.338118
0.326618
0.32669
0.326949
0.32739
0.328007
0.328792
0.329735
0.330824
0.332047
0.333384
0.334814
0.336311
0.337843
0.339376
0.340868
0.342276
0.343558
0.344672
0.345151
0.344933
0.344414
0.343624
0.342596
0.341361
0.339944
0.338373
0.336667
0.334825
0.472078
0.46781
0.463535
0.459242
0.454915
0.450535
0.446076
0.441504
0.436773
0.431827
0.426587
0.420955
0.414797
0.408131
0.401329
0.394735
0.388448
0.382523
0.376982
0.371819
0.36701
0.362522
0.358319
0.354173
0.350063
0.346162
0.342448
0.338902
0.335504
0.326463
0.326492
0.326705
0.327096
0.327657
0.328379
0.329253
0.330265
0.331399
0.332637
0.333957
0.335331
0.336728
0.338114
0.33945
0.340695
0.341811
0.342759
0.343099
0.342776
0.342166
0.3413
0.340208
0.338918
0.337457
0.335849
0.334113
0.332247
0.467827
0.463574
0.459315
0.455037
0.450728
0.446366
0.441927
0.437377
0.432672
0.427754
0.42255
0.416962
0.410863
0.404277
0.397575
0.391094
0.384925
0.379119
0.373691
0.368632
0.363916
0.35951
0.355377
0.3513
0.347259
0.343418
0.339757
0.336257
0.332899
0.326266
0.326252
0.326418
0.326757
0.32726
0.327919
0.328721
0.329653
0.330698
0.331836
0.333044
0.334296
0.33556
0.336802
0.337986
0.339074
0.34003
0.340819
0.341028
0.340605
0.33991
0.338972
0.337818
0.336477
0.334974
0.333329
0.331564
0.329676
0.463591
0.459354
0.455111
0.450851
0.44656
0.442219
0.437801
0.433275
0.428596
0.42371
0.418543
0.413003
0.406967
0.400466
0.393866
0.387498
0.381448
0.375757
0.370438
0.365479
0.360852
0.356524
0.352458
0.348447
0.344472
0.340688
0.337078
0.333621
0.330301
0.326028
0.325969
0.326086
0.326372
0.326817
0.327411
0.32814
0.32899
0.329944
0.330981
0.332078
0.333208
0.33434
0.335441
0.336478
0.337414
0.338217
0.338856
0.338939
0.338423
0.337647
0.336639
0.335427
0.334037
0.332493
0.330814
0.329021
0.327111
0.459371
0.455151
0.450925
0.446684
0.442413
0.438093
0.433698
0.429197
0.424547
0.419694
0.414568
0.409079
0.40311
0.396695
0.390201
0.383947
0.378012
0.372435
0.367222
0.362359
0.357817
0.353563
0.349561
0.345613
0.3417
0.337972
0.334409
0.330994
0.32771
0.325748
0.325643
0.325711
0.325942
0.326327
0.326854
0.327508
0.328276
0.329138
0.330074
0.33106
0.332069
0.333071
0.334035
0.334928
0.335718
0.336375
0.336871
0.336835
0.336229
0.335376
0.334303
0.333035
0.331598
0.330015
0.328304
0.326483
0.324551
0.455168
0.450965
0.446759
0.442537
0.438287
0.433989
0.429619
0.425145
0.420526
0.415708
0.410625
0.405189
0.39929
0.392965
0.386578
0.380438
0.374617
0.36915
0.36404
0.359268
0.354808
0.350625
0.346685
0.342797
0.338943
0.335268
0.331751
0.328376
0.325126
0.325424
0.325273
0.32529
0.325466
0.32579
0.326248
0.326828
0.327511
0.328281
0.329116
0.329991
0.33088
0.331755
0.332585
0.333339
0.333989
0.334506
0.334865
0.334716
0.334025
0.333098
0.331962
0.330642
0.329161
0.327539
0.325797
0.323949
0.321998
0.450983
0.446799
0.442612
0.438412
0.434184
0.429909
0.425565
0.421119
0.416532
0.411752
0.406714
0.401334
0.395507
0.389276
0.382996
0.376968
0.371261
0.365901
0.360889
0.356207
0.351824
0.347709
0.343827
0.339997
0.336201
0.332575
0.329102
0.325765
0.322549
0.325058
0.324859
0.324825
0.324944
0.325205
0.325594
0.326097
0.326697
0.327374
0.328107
0.328872
0.329643
0.330393
0.331093
0.331714
0.332228
0.332611
0.33284
0.332583
0.331811
0.330814
0.329619
0.328248
0.326723
0.325066
0.323293
0.321421
0.319449
0.446816
0.442652
0.438486
0.434308
0.430103
0.425854
0.421536
0.417121
0.412567
0.407827
0.402836
0.397514
0.391762
0.385625
0.379453
0.373538
0.367941
0.362685
0.357769
0.353171
0.348864
0.344813
0.340987
0.337212
0.333471
0.329893
0.326462
0.323162
0.319978
0.324647
0.324401
0.324314
0.324376
0.324573
0.324893
0.325318
0.325833
0.326417
0.327049
0.327706
0.328361
0.328989
0.329562
0.330053
0.330438
0.330692
0.330796
0.330437
0.329588
0.328524
0.327272
0.325852
0.324287
0.322595
0.320793
0.318897
0.316906
0.44267
0.438527
0.434383
0.430227
0.426047
0.421823
0.417534
0.41315
0.408632
0.403932
0.39899
0.393729
0.388053
0.382011
0.375948
0.370144
0.364655
0.359501
0.354676
0.350161
0.345925
0.341937
0.338165
0.334442
0.330753
0.327222
0.323831
0.320566
0.317413
0.324191
0.323897
0.323758
0.323761
0.323894
0.324143
0.324491
0.32492
0.325412
0.325944
0.326493
0.327034
0.327543
0.327993
0.32836
0.328619
0.328751
0.328736
0.328279
0.327356
0.326229
0.324922
0.323456
0.321851
0.320126
0.318296
0.316376
0.314367
0.438544
0.434423
0.430301
0.42617
0.422015
0.417819
0.413559
0.409207
0.404726
0.400069
0.395178
0.389978
0.38438
0.378435
0.372481
0.366786
0.361402
0.356346
0.351611
0.347174
0.343007
0.339079
0.335358
0.331686
0.328047
0.32456
0.321208
0.317977
0.314853
0.323691
0.323348
0.323155
0.3231
0.323168
0.323345
0.323615
0.32396
0.324359
0.324791
0.325235
0.325665
0.326058
0.326389
0.326635
0.326774
0.326788
0.32666
0.326109
0.325115
0.323928
0.322569
0.321058
0.319416
0.317659
0.315802
0.31386
0.311834
0.43444
0.430342
0.426244
0.422137
0.418008
0.41384
0.409611
0.405293
0.400849
0.396237
0.391397
0.386261
0.380743
0.374896
0.369049
0.363461
0.35818
0.35322
0.34857
0.34421
0.340109
0.336238
0.332567
0.328943
0.325353
0.321908
0.318593
0.315394
0.312299
0.323146
0.322754
0.322507
0.322392
0.322395
0.322501
0.322692
0.322952
0.323259
0.323594
0.323933
0.324254
0.324534
0.32475
0.32488
0.324904
0.324805
0.324568
0.323929
0.322868
0.321622
0.320213
0.31866
0.316982
0.315194
0.313312
0.311348
0.309304
0.430359
0.426284
0.422211
0.41813
0.414028
0.409889
0.405691
0.401408
0.397004
0.392436
0.38765
0.382579
0.377141
0.371391
0.365651
0.360169
0.354989
0.35012
0.345554
0.341266
0.33723
0.333414
0.32979
0.326212
0.322669
0.319264
0.315985
0.312818
0.30975
0.322556
0.322114
0.321813
0.321638
0.321575
0.321609
0.321723
0.321898
0.322115
0.322353
0.32259
0.322805
0.322975
0.323079
0.323097
0.32301
0.322803
0.322462
0.321738
0.320612
0.319311
0.317855
0.316261
0.314548
0.312731
0.310824
0.308839
0.306779
0.426301
0.42225
0.418202
0.414148
0.410074
0.405965
0.4018
0.397552
0.393188
0.388667
0.383935
0.37893
0.373572
0.36792
0.362286
0.356908
0.351825
0.347046
0.34256
0.338343
0.334368
0.330604
0.327026
0.323494
0.319995
0.316629
0.313384
0.310247
0.307206
0.321921
0.321429
0.321073
0.320838
0.32071
0.320672
0.320708
0.320799
0.320926
0.321068
0.321206
0.321317
0.32138
0.321376
0.321287
0.321094
0.320783
0.320343
0.319537
0.31835
0.316996
0.315494
0.313861
0.312114
0.310269
0.308338
0.306334
0.304258
0.422267
0.418241
0.41422
0.410193
0.406148
0.402069
0.397938
0.393727
0.389404
0.384929
0.380253
0.375314
0.370038
0.364483
0.358953
0.353676
0.348689
0.343997
0.339588
0.335439
0.331522
0.32781
0.324276
0.320787
0.31733
0.314002
0.310791
0.307683
0.304666
0.32124
0.320698
0.320287
0.319992
0.319798
0.319689
0.319647
0.319655
0.319694
0.319743
0.319782
0.319792
0.319752
0.319644
0.319451
0.319156
0.318746
0.318211
0.317327
0.316081
0.314676
0.31313
0.31146
0.309682
0.307809
0.305856
0.303832
0.301741
0.418258
0.414258
0.410264
0.406264
0.402249
0.398202
0.394105
0.389931
0.38565
0.381223
0.376603
0.371731
0.366537
0.361078
0.355651
0.350473
0.345579
0.340971
0.336636
0.332552
0.328693
0.32503
0.321538
0.31809
0.314675
0.311384
0.308204
0.305123
0.302132
0.320514
0.319922
0.319456
0.319101
0.318841
0.318661
0.318542
0.318468
0.318419
0.318377
0.318321
0.318232
0.318092
0.317884
0.31759
0.317197
0.316693
0.316066
0.315108
0.313806
0.312353
0.310765
0.309059
0.30725
0.305351
0.303376
0.301333
0.299228
0.414275
0.410302
0.406334
0.402364
0.398379
0.394364
0.390301
0.386165
0.381927
0.377549
0.372985
0.36818
0.363067
0.357705
0.352378
0.347298
0.342493
0.337967
0.333704
0.329683
0.325879
0.322263
0.318812
0.315404
0.312028
0.308772
0.305623
0.30257
0.299602
0.319742
0.3191
0.31858
0.318164
0.31784
0.317588
0.317394
0.317239
0.317104
0.316972
0.316823
0.316638
0.316402
0.316096
0.315706
0.315219
0.314623
0.31391
0.312881
0.311525
0.310025
0.308397
0.306656
0.304818
0.302895
0.300898
0.298838
0.296719
0.410318
0.406372
0.402432
0.398491
0.394537
0.390555
0.386527
0.38243
0.378234
0.373905
0.369399
0.364661
0.359629
0.354362
0.349135
0.344149
0.339432
0.334983
0.330791
0.326831
0.323079
0.319509
0.316097
0.312728
0.30939
0.306168
0.303048
0.300021
0.297076
0.318925
0.318234
0.317659
0.317184
0.316794
0.316472
0.316203
0.315968
0.315749
0.315529
0.315289
0.315012
0.314682
0.314282
0.3138
0.313222
0.31254
0.311743
0.310646
0.309238
0.307693
0.306027
0.304254
0.302387
0.30044
0.298423
0.296346
0.294213
0.406388
0.402469
0.398558
0.394647
0.390724
0.386775
0.382783
0.378725
0.374573
0.370294
0.365844
0.361174
0.356222
0.351048
0.345919
0.341025
0.336393
0.332021
0.327896
0.323995
0.320294
0.316767
0.313393
0.310061
0.30676
0.30357
0.30048
0.297478
0.294555
0.318064
0.317323
0.316693
0.316159
0.315704
0.315314
0.31497
0.314657
0.314355
0.314049
0.313721
0.313354
0.312933
0.312444
0.311872
0.311208
0.310442
0.309566
0.308403
0.306946
0.305359
0.303655
0.30185
0.299957
0.297987
0.29595
0.293857
0.291711
0.402485
0.398594
0.394713
0.390831
0.38694
0.383025
0.379069
0.37505
0.370943
0.366713
0.36232
0.357717
0.352846
0.347764
0.34273
0.337926
0.333376
0.329078
0.325018
0.321173
0.317521
0.314038
0.3107
0.307404
0.304139
0.30098
0.297917
0.294939
0.292038
0.317158
0.316368
0.315684
0.31509
0.314572
0.314113
0.313697
0.313306
0.312924
0.312534
0.31212
0.311666
0.311158
0.310581
0.309924
0.309177
0.30833
0.307378
0.306152
0.304649
0.30302
0.301281
0.299446
0.297527
0.295535
0.29348
0.291371
0.289213
0.39861
0.394748
0.390895
0.387045
0.383186
0.379305
0.375385
0.371407
0.367343
0.363163
0.358827
0.354291
0.349499
0.344508
0.339566
0.334851
0.330381
0.326154
0.322156
0.318367
0.314762
0.311319
0.308017
0.304755
0.301525
0.298396
0.29536
0.292406
0.289525
0.316208
0.315369
0.314631
0.313979
0.313398
0.312871
0.312383
0.311917
0.311456
0.310985
0.310487
0.309949
0.309356
0.308695
0.307956
0.307129
0.306206
0.305181
0.303896
0.302347
0.300679
0.298906
0.297042
0.295098
0.293085
0.291012
0.288889
0.286719
0.394763
0.39093
0.387107
0.383288
0.379461
0.375614
0.371732
0.367793
0.363773
0.359643
0.355364
0.350894
0.34618
0.341278
0.336428
0.331798
0.327405
0.323248
0.319311
0.315574
0.312016
0.308612
0.305344
0.302116
0.298918
0.295819
0.292808
0.289877
0.287016
0.315214
0.314326
0.313535
0.312826
0.312182
0.311589
0.31103
0.31049
0.309952
0.309402
0.308824
0.308204
0.307529
0.306788
0.30597
0.305066
0.30407
0.302974
0.301632
0.30004
0.298334
0.296529
0.294637
0.29267
0.290637
0.288547
0.286409
0.284228
0.390944
0.38714
0.383348
0.37956
0.375766
0.371954
0.368108
0.36421
0.360234
0.356153
0.351932
0.347527
0.34289
0.338076
0.333315
0.328768
0.32445
0.320359
0.316481
0.312796
0.309281
0.305915
0.30268
0.299484
0.296319
0.293248
0.290262
0.287353
0.284512
0.314176
0.313241
0.312397
0.311631
0.310926
0.310268
0.30964
0.309027
0.308414
0.307787
0.30713
0.306431
0.305678
0.30486
0.303966
0.302988
0.301921
0.300759
0.299362
0.297728
0.295987
0.294151
0.292233
0.290242
0.28819
0.286084
0.283932
0.281741
0.387155
0.383381
0.379619
0.375862
0.372101
0.368324
0.364515
0.360656
0.356725
0.352694
0.348528
0.344188
0.339628
0.334899
0.330225
0.325758
0.321513
0.317487
0.313666
0.31003
0.306558
0.303229
0.300026
0.296861
0.293727
0.290683
0.287722
0.284834
0.282011
0.313096
0.312113
0.311218
0.310395
0.30963
0.308907
0.308212
0.307529
0.306843
0.306141
0.305408
0.304633
0.303804
0.302911
0.301944
0.300897
0.299762
0.298536
0.297086
0.295413
0.293637
0.291772
0.289828
0.287816
0.285745
0.283624
0.281459
0.279257
0.383395
0.37965
0.375919
0.372194
0.368466
0.364723
0.360951
0.357133
0.353246
0.349264
0.345154
0.340878
0.336392
0.331748
0.327158
0.322769
0.318595
0.314632
0.310865
0.307277
0.303846
0.300553
0.297381
0.294246
0.291141
0.288124
0.285186
0.282319
0.279515
0.311973
0.310944
0.309998
0.30912
0.308295
0.30751
0.306748
0.305996
0.305239
0.304464
0.303659
0.30281
0.301908
0.300943
0.299906
0.298791
0.297592
0.296304
0.294805
0.293093
0.291285
0.289391
0.287423
0.28539
0.283302
0.281165
0.278989
0.276777
0.379664
0.375949
0.372249
0.368556
0.36486
0.361152
0.357418
0.353639
0.349796
0.345862
0.341808
0.337596
0.333183
0.32862
0.324113
0.319801
0.315695
0.311792
0.308078
0.304536
0.301145
0.297887
0.294744
0.291639
0.288563
0.285572
0.282656
0.279809
0.277023
0.310809
0.309734
0.308737
0.307805
0.306923
0.306075
0.305249
0.30443
0.303604
0.302759
0.301882
0.300963
0.29999
0.298956
0.297852
0.296673
0.295412
0.294066
0.292518
0.29077
0.28893
0.287009
0.285018
0.282965
0.28086
0.27871
0.276522
0.274301
0.375962
0.372278
0.368609
0.364947
0.361285
0.357611
0.353914
0.350175
0.346375
0.34249
0.33849
0.33434
0.329999
0.325517
0.32109
0.316851
0.312812
0.308967
0.305305
0.301807
0.298455
0.29523
0.292116
0.289039
0.285991
0.283025
0.280131
0.277304
0.274535
0.309604
0.308483
0.307437
0.306452
0.305512
0.304605
0.303716
0.302831
0.301939
0.301026
0.30008
0.299092
0.298052
0.296952
0.295784
0.294542
0.293222
0.29182
0.290227
0.288444
0.286573
0.284627
0.282613
0.280542
0.27842
0.276257
0.274058
0.271828
0.372291
0.368636
0.364998
0.361368
0.357739
0.3541
0.350439
0.34674
0.342983
0.339146
0.3352
0.331111
0.326841
0.322437
0.318088
0.31392
0.309945
0.306157
0.302545
0.29909
0.295775
0.292582
0.289496
0.286447
0.283426
0.280483
0.277611
0.274803
0.272051
0.308359
0.307193
0.306099
0.305061
0.304066
0.3031
0.302149
0.301201
0.300244
0.299265
0.298253
0.2972
0.296095
0.29493
0.2937
0.292399
0.291023
0.289567
0.28793
0.286114
0.284215
0.282243
0.280208
0.278119
0.275983
0.273807
0.271597
0.26936
0.368649
0.365025
0.361417
0.357819
0.354223
0.350618
0.346994
0.343334
0.33962
0.33583
0.331937
0.327908
0.323707
0.31938
0.315106
0.311008
0.307095
0.303362
0.299797
0.296384
0.293105
0.289943
0.286885
0.283862
0.280867
0.277948
0.275097
0.272307
0.269571
0.307074
0.305865
0.304723
0.303634
0.302584
0.301561
0.300551
0.299541
0.298521
0.297478
0.296403
0.295285
0.294118
0.292892
0.291603
0.290245
0.288814
0.287307
0.285629
0.283781
0.281854
0.279859
0.277804
0.275698
0.273547
0.271359
0.269139
0.266894
0.365036
0.361442
0.357865
0.354299
0.350736
0.347166
0.343577
0.339957
0.336285
0.332542
0.3287
0.32473
0.320597
0.316344
0.312144
0.308113
0.30426
0.30058
0.297062
0.293689
0.290445
0.287314
0.284281
0.281284
0.278315
0.275418
0.272587
0.269815
0.267096
0.30575
0.304498
0.30331
0.30217
0.301068
0.299989
0.29892
0.297851
0.29677
0.295666
0.294529
0.293351
0.292123
0.290839
0.289493
0.288081
0.286598
0.285042
0.283323
0.281445
0.279493
0.277475
0.275401
0.273278
0.271114
0.268915
0.266685
0.264433
0.361453
0.35789
0.354344
0.350809
0.347278
0.343742
0.34019
0.336608
0.332978
0.32928
0.32549
0.321578
0.31751
0.31333
0.309202
0.305236
0.301441
0.297812
0.294339
0.291004
0.287794
0.284693
0.281686
0.278714
0.275769
0.272894
0.270083
0.267328
0.264624
0.304388
0.303094
0.30186
0.300672
0.299518
0.298384
0.29726
0.296133
0.294993
0.293829
0.292633
0.291396
0.29011
0.28877
0.28737
0.285906
0.284373
0.282771
0.281014
0.279107
0.277129
0.27509
0.272998
0.27086
0.268683
0.266473
0.264234
0.261976
0.3579
0.354367
0.350851
0.347347
0.343849
0.340347
0.336831
0.333286
0.329697
0.326045
0.322305
0.31845
0.314447
0.310337
0.306278
0.302375
0.298637
0.295058
0.291627
0.288331
0.285153
0.28208
0.279098
0.27615
0.273229
0.270376
0.267583
0.264845
0.262157
0.302989
0.301654
0.300375
0.29914
0.297935
0.296749
0.29557
0.294387
0.29319
0.291969
0.290716
0.289422
0.288081
0.286687
0.285235
0.283721
0.282141
0.280494
0.278701
0.276766
0.274765
0.272705
0.270596
0.268443
0.266254
0.264033
0.261787
0.259522
0.354377
0.350873
0.347388
0.343915
0.340449
0.33698
0.333499
0.329992
0.326444
0.322836
0.319146
0.315346
0.311405
0.307364
0.303373
0.299531
0.295847
0.292316
0.288927
0.285667
0.282521
0.279476
0.276518
0.273594
0.270696
0.267863
0.265089
0.262368
0.259694
0.301554
0.300179
0.298857
0.297575
0.296321
0.295083
0.293851
0.292614
0.291362
0.290086
0.288778
0.28743
0.286036
0.284591
0.283089
0.281527
0.279902
0.278212
0.276385
0.274424
0.2724
0.270321
0.268195
0.266028
0.263827
0.261597
0.259343
0.257073
0.350883
0.347409
0.343953
0.340512
0.337077
0.333642
0.330195
0.326726
0.323218
0.319653
0.316011
0.312265
0.308386
0.304411
0.300485
0.296702
0.293071
0.289586