/*--------------------------------*- C++ -*----------------------------------*\
| =========                 |                                                 |
| \\      /  F ield         | OpenFOAM: The Open Source CFD Toolbox           |
|  \\    /   O peration     | Version:  4.1                                   |
|   \\  /    A nd           | Web:      www.OpenFOAM.org                      |
|    \\/     M anipulation  |                                                 |
\*---------------------------------------------------------------------------*/
FoamFile
{
    version     2.0;
    format      ascii;
    class       volVectorField;
    location    "0";
    object      U;
}
// * * * * * * * * * * * * * * * * * * * * * * * * * * * * * * * * * * * * * //

dimensions      [0 1 -1 0 0 0 0];

internalField   nonuniform List<vector> 
12225
(
(10.0165 -0.00327409 0)
(10.048 -0.00468602 0)
(10.0162 -0.0469196 0)
(10.0805 -0.00547367 0)
(10.0475 -0.0489988 0)
(10.0161 -0.107457 0)
(10.1197 -0.00663718 0)
(10.0801 -0.0512491 0)
(10.047 -0.109239 0)
(10.0158 -0.146669 0)
(10.1682 -0.0082268 0)
(10.1191 -0.0546477 0)
(10.0792 -0.113036 0)
(10.0461 -0.149385 0)
(10.0153 -0.183758 0)
(10.2288 -0.0103252 0)
(10.1673 -0.0593493 0)
(10.1177 -0.118821 0)
(10.0775 -0.154997 0)
(10.0446 -0.187483 0)
(10.0147 -0.218921 0)
(10.3052 -0.0130583 0)
(10.2276 -0.0656082 0)
(10.1653 -0.126861 0)
(10.1153 -0.163521 0)
(10.075 -0.195051 0)
(10.0426 -0.223727 0)
(10.0137 -0.252261 0)
(10.4015 -0.016615 0)
(10.3035 -0.0738123 0)
(10.2249 -0.137594 0)
(10.1618 -0.175339 0)
(10.1115 -0.206524 0)
(10.0714 -0.233378 0)
(10.0397 -0.258328 0)
(10.0126 -0.285141 0)
(10.523 -0.0212812 0)
(10.3992 -0.0845432 0)
(10.2998 -0.151687 0)
(10.2201 -0.191081 0)
(10.1566 -0.2224 0)
(10.1061 -0.247988 0)
(10.0664 -0.270165 0)
(10.0364 -0.292152 0)
(10.0115 -0.319095 0)
(10.677 -0.0275 0)
(10.5199 -0.098679 0)
(10.3941 -0.170139 0)
(10.2934 -0.211705 0)
(10.2129 -0.2435 0)
(10.1489 -0.268162 0)
(10.0987 -0.288068 0)
(10.0608 -0.305924 0)
(10.033 -0.326723 0)
(10.0101 -0.350862 0)
(10.8736 -0.0359865 0)
(10.6726 -0.117578 0)
(10.5128 -0.194453 0)
(10.3853 -0.238638 0)
(10.2835 -0.271073 0)
(10.2025 -0.294906 0)
(10.1385 -0.312726 0)
(10.0903 -0.326724 0)
(10.0548 -0.342196 0)
(10.0285 -0.359361 0)
(10.0082 -0.378264 0)
(11.1279 -0.0479571 0)
(10.8672 -0.143426 0)
(10.6626 -0.22694 0)
(10.5006 -0.274012 0)
(10.3718 -0.306961 0)
(10.2693 -0.329736 0)
(10.1882 -0.345303 0)
(10.1268 -0.355297 0)
(10.0814 -0.365513 0)
(10.0469 -0.376659 0)
(10.0226 -0.387756 0)
(10.0058 -0.40233 0)
(11.4639 -0.0656314 0)
(11.1182 -0.179921 0)
(10.8527 -0.271291 0)
(10.6454 -0.321079 0)
(10.482 -0.353895 0)
(10.3526 -0.374876 0)
(10.2501 -0.387547 0)
(10.1723 -0.39292 0)
(10.1144 -0.397459 0)
(10.0697 -0.40265 0)
(10.0367 -0.406953 0)
(10.015 -0.412794 0)
(10.0027 -0.422273 0)
(11.9222 -0.0934561 0)
(11.4483 -0.23376 0)
(11.0963 -0.333688 0)
(10.8279 -0.384967 0)
(10.6195 -0.415984 0)
(10.4558 -0.433572 0)
(10.3267 -0.441987 0)
(10.2288 -0.441493 0)
(10.1555 -0.439374 0)
(10.0982 -0.438136 0)
(10.0547 -0.435686 0)
(10.0236 -0.433853 0)
(10.0054 -0.43362 0)
(9.99874 -0.436607 0)
(12.5806 -0.141588 0)
(11.8952 -0.318184 0)
(11.4134 -0.425134 0)
(11.0593 -0.474109 0)
(10.7908 -0.499586 0)
(10.5831 -0.51062 0)
(10.4207 -0.512247 0)
(10.2981 -0.503726 0)
(10.2063 -0.493232 0)
(10.1337 -0.484482 0)
(10.0774 -0.474742 0)
(10.0355 -0.465238 0)
(10.007 -0.456362 0)
(9.99336 -0.448656 0)
(9.99396 -0.44293 0)
(13.6129 -0.238171 0)
(12.5269 -0.462676 0)
(11.8352 -0.566783 0)
(11.3552 -0.603103 0)
(11.0044 -0.614876 0)
(10.7393 -0.613247 0)
(10.5349 -0.60355 0)
(10.3823 -0.583433 0)
(10.2682 -0.561812 0)
(10.1774 -0.543678 0)
(10.1059 -0.525455 0)
(10.051 -0.507661 0)
(10.0112 -0.490082 0)
(9.98634 -0.472705 0)
(9.97865 -0.455383 0)
(9.98828 -0.437703 0)
(15.5228 -0.487497 0)
(13.479 -0.744573 0)
(12.4117 -0.803431 0)
(11.7377 -0.798806 0)
(11.2709 -0.778789 0)
(10.9297 -0.752605 0)
(10.6721 -0.723497 0)
(10.4829 -0.685961 0)
(10.3424 -0.64894 0)
(10.2301 -0.618471 0)
(10.1407 -0.58974 0)
(10.0707 -0.562348 0)
(10.0178 -0.535355 0)
(9.98118 -0.50815 0)
(9.96123 -0.48012 0)
(9.96124 -0.450135 0)
(9.98179 -0.416084 0)
(20.4705 -1.46169 0)
(15.0278 -1.41678 0)
(13.2195 -1.24165 0)
(12.2345 -1.11403 0)
(11.6016 -1.02064 0)
(11.1592 -0.946294 0)
(10.8343 -0.883268 0)
(10.601 -0.818815 0)
(10.4295 -0.759824 0)
(10.2922 -0.712537 0)
(10.1822 -0.67018 0)
(10.0948 -0.631031 0)
(10.0271 -0.593205 0)
(9.97722 -0.55536 0)
(9.94501 -0.516335 0)
(9.93168 -0.474683 0)
(9.94146 -0.428049 0)
(9.97514 -0.377118 0)
(17.3762 -3.56058 0)
(17.7783 -17.4753 0)
(14.319 -2.16726 0)
(12.8644 -1.6592 0)
(12.0023 -1.3928 0)
(11.429 -1.2225 0)
(11.021 -1.09935 0)
(10.7361 -0.992485 0)
(10.5292 -0.901499 0)
(10.3632 -0.830702 0)
(10.2298 -0.77011 0)
(10.1229 -0.715971 0)
(10.0386 -0.665056 0)
(9.97415 -0.615061 0)
(9.92875 -0.564126 0)
(9.90282 -0.510355 0)
(9.89834 -0.451291 0)
(9.92155 -0.388217 0)
(9.9694 -0.32808 0)
(15.3025 -4.38936 0)
(15.7024 -11.7614 0)
(3.16608 -18.9155 0)
(10.015 -12.5925 0)
(13.5573 -2.66914 0)
(12.4505 -1.98892 0)
(11.728 -1.62598 0)
(11.2255 -1.39573 0)
(10.884 -1.22137 0)
(10.6388 -1.08328 0)
(10.4415 -0.979156 0)
(10.2823 -0.893693 0)
(10.154 -0.819952 0)
(10.0514 -0.752688 0)
(9.97125 -0.688253 0)
(9.91181 -0.623847 0)
(9.87286 -0.556951 0)
(9.85564 -0.484824 0)
(9.86522 -0.409152 0)
(9.90473 -0.337987 0)
(9.96493 -0.276613 0)
(13.8459 -4.57016 0)
(14.1243 -8.73026 0)
(11.1876 -10.8239 0)
(1.82822 -15.1275 0)
(6.51259 -13.2485 0)
(8.02046 -10.2536 0)
(12.8265 -2.96131 0)
(12.012 -2.22307 0)
(11.4266 -1.8053 0)
(11.0337 -1.52432 0)
(10.7519 -1.31704 0)
(10.5228 -1.16555 0)
(10.3367 -1.04593 0)
(10.1858 -0.946224 0)
(10.0639 -0.858155 0)
(9.96722 -0.776115 0)
(9.89317 -0.696001 0)
(9.84093 -0.614428 0)
(9.81112 -0.528161 0)
(9.8092 -0.439177 0)
(9.83762 -0.356214 0)
(9.89175 -0.285199 0)
(9.96151 -0.226185 0)
(12.7755 -4.46167 0)
(12.947 -7.00763 0)
(11.4402 -9.08858 0)
(8.97707 -9.48931 0)
(1.14262 -12.6623 0)
(4.28796 -12.5312 0)
(6.57489 -10.6356 0)
(7.13947 -8.83925 -2.29e-25)
(12.1636 -3.09005 0)
(11.5753 -2.3664 0)
(11.1612 -1.92322 0)
(10.8554 -1.61666 0)
(10.5992 -1.39868 0)
(10.3879 -1.23241 0)
(10.2147 -1.09833 0)
(10.0736 -0.983625 0)
(9.96016 -0.879864 0)
(9.87139 -0.781113 0)
(9.80591 -0.682785 0)
(9.7638 -0.580903 0)
(9.75108 -0.477601 0)
(9.77079 -0.382229 0)
(9.81651 -0.300791 0)
(9.8819 -0.233509 0)
(9.95893 -0.178956 0)
(11.9578 -4.2337 0)
(12.0613 -5.93619 0)
(11.2804 -7.65152 0)
(9.5577 -8.54662 0)
(7.81678 -8.42215 2.19344e-25)
(0.768718 -10.9213 0)
(2.9341 -11.4095 0)
(5.10612 -10.529 -5.43027e-25)
(6.28929 -9.08672 -2.34474e-25)
(6.60494 -7.85348 0)
(11.5794 -3.10234 0)
(11.2223 -2.43605 0)
(10.9256 -1.99531 0)
(10.657 -1.68727 0)
(10.4273 -1.45869 0)
(10.2352 -1.27969 0)
(10.0766 -1.13111 0)
(9.94739 -1.00055 0)
(9.84455 -0.879579 0)
(9.76639 -0.761944 0)
(9.7126 -0.642626 0)
(9.68992 -0.52378 0)
(9.70193 -0.415262 0)
(9.74156 -0.322959 0)
(9.80057 -0.246679 0)
(9.87451 -0.185144 0)
(9.95699 -0.136301 0)
(11.3128 -3.96471 0)
(11.3787 -5.19414 0)
(10.9655 -6.5401 0)
(9.82424 -7.5696 0)
(8.35862 -7.86789 4.09109e-25)
(7.1096 -7.59204 0)
(0.549579 -9.60392 0)
(2.08949 -10.2729 0)
(3.90856 -10.0614 -1.55656e-24)
(5.30984 -9.11361 -7.05035e-25)
(6.01099 -8.02437 0)
(6.22843 -7.10586 0)
(11.1495 -3.05847 0)
(10.9254 -2.4584 0)
(10.6754 -2.03689 0)
(10.4426 -1.72878 0)
(10.2395 -1.49283 0)
(10.0678 -1.30199 0)
(9.92544 -1.1388 0)
(9.81026 -0.991475 0)
(9.7207 -0.851618 0)
(9.65634 -0.712797 0)
(9.62477 -0.577031 0)
(9.63016 -0.454567 0)
(9.6648 -0.350943 0)
(9.71959 -0.265347 0)
(9.78867 -0.196149 0)
(9.86901 -0.141484 0)
(9.95556 -0.0990079 0)
(10.8701 -3.73161 0)
(10.8371 -4.63021 0)
(10.6139 -5.68513 0)
(9.87611 -6.67202 0)
(8.73431 -7.21419 7.5534e-25)
(7.5649 -7.23847 -7.54688e-25)
(6.62518 -6.92816 -3.6004e-25)
(0.411883 -8.55062 0)
(1.54427 -9.24162 0)
(2.99804 -9.40425 -9.70122e-25)
(4.37763 -8.92016 4.58996e-25)
(5.30704 -8.0765 0)
(5.77537 -7.22895 1.86485e-25)
(5.94139 -6.50765 0)
(10.8072 -2.99002 0)
(10.6258 -2.4442 0)
(10.4167 -2.0425 0)
(10.2172 -1.73802 0)
(10.0406 -1.49638 0)
(9.89005 -1.29439 0)
(9.76572 -1.11634 0)
(9.66699 -0.951173 0)
(9.59376 -0.79068 0)
(9.55473 -0.636573 0)
(9.55472 -0.499371 0)
(9.58544 -0.384001 0)
(9.63705 -0.288809 0)
(9.70323 -0.211705 0)
(9.77988 -0.150577 0)
(9.86497 -0.103315 0)
(9.9545 -0.0674881 0)
(10.5301 -3.53664 0)
(10.4618 -4.23022 0)
(10.2742 -5.01344 -1.07267e-24)
(9.80014 -5.8908 0)
(8.95382 -6.53923 6.85792e-25)
(7.93861 -6.7875 -7.0837e-25)
(7.00544 -6.68828 3.49599e-25)
(6.26599 -6.38077 0)
(0.319921 -7.67245 -1.58549e-24)
(1.17858 -8.33308 8.59964e-25)
(2.32448 -8.68425 0)
(3.56437 -8.54868 7.85232e-28)
(4.58508 -7.99832 0)
(5.23629 -7.27924 1.8782e-25)
(5.57725 -6.59881 0)
(5.71141 -6.01119 1.55795e-25)
(10.478 -2.88886 0)
(10.3302 -2.39172 0)
(10.1562 -2.01157 0)
(9.9874 -1.71217 0)
(9.83641 -1.46584 0)
(9.70785 -1.25294 0)
(9.60329 -1.0595 0)
(9.5236 -0.875256 0)
(9.47894 -0.701479 0)
(9.47491 -0.54883 0)
(9.50281 -0.42137 0)
(9.55222 -0.316377 0)
(9.61647 -0.231188 0)
(9.69118 -0.16339 0)
(9.77346 -0.110727 0)
(9.86204 -0.0710462 0)
(9.95372 -0.0419121 0)
(10.212 -3.3278 0)
(10.1723 -3.93428 0)
(10.0098 -4.53617 -9.7306e-25)
(9.65735 -5.22587 1.11446e-24)
(9.04826 -5.88972 0)
(8.21588 -6.28504 1.32137e-24)
(7.34675 -6.36503 6.64207e-25)
(6.58797 -6.21095 0)
(5.98482 -5.91781 -1.54227e-25)
(0.255434 -6.91674 -1.42943e-24)
(0.923895 -7.53357 7.77646e-25)
(1.82854 -7.96973 0)
(2.8914 -8.06714 -8.31306e-25)
(3.89853 -7.78527 -8.01194e-25)
(4.66343 -7.25105 0)
(5.14491 -6.64074 -3.42e-25)
(5.40835 -6.07987 1.56806e-25)
(5.52066 -5.58818 1.44847e-25)
(10.166 -2.75671 0)
(10.0446 -2.30385 0)
(9.90054 -1.94412 0)
(9.75964 -1.64991 0)
(9.6336 -1.39905 0)
(9.5277 -1.17492 0)
(9.44472 -0.965184 0)
(9.39666 -0.770639 0)
(9.39018 -0.602014 0)
(9.41639 -0.462251 0)
(9.46452 -0.347354 0)
(9.5277 -0.253989 0)
(9.60136 -0.179391 0)
(9.68241 -0.121129 0)
(9.76885 -0.0769828 0)
(9.85994 -0.0448519 0)
(9.95314 -0.0223289 0)
(9.91636 -3.10586 0)
(9.89931 -3.64403 0)
(9.79393 -4.18642 -9.10916e-25)
(9.5111 -4.73269 -5.62594e-27)
(9.05354 -5.2915 0)
(8.39845 -5.76394 1.2141e-24)
(7.63199 -5.98644 1.25807e-24)
(6.89258 -5.97117 0)
(6.26192 -5.79418 3.0297e-25)
(5.75602 -5.5182 1.43055e-25)
(0.208519 -6.2502 0)
(0.740377 -6.82362 0)
(1.46056 -7.29085 0)
(2.35075 -7.53163 1.55105e-24)
(3.2816 -7.46523 -7.68697e-25)
(4.08951 -7.12534 0)
(4.67749 -6.63458 -3.41801e-25)
(5.04982 -6.11263 4.72397e-25)
(5.26203 -5.64037 0)
(5.3583 -5.22053 0)
(9.87395 -2.59842 0)
(9.77372 -2.1833 0)
(9.65553 -1.84138 0)
(9.5403 -1.55131 0)
(9.43861 -1.29512 0)
(9.35617 -1.05878 0)
(9.30734 -0.842769 0)
(9.30013 -0.657893 0)
(9.32582 -0.505794 0)
(9.37355 -0.381023 0)
(9.43641 -0.279498 0)
(9.50976 -0.19806 0)
(9.5904 -0.134082 0)
(9.67614 -0.0852619 0)
(9.76562 -0.0494907 0)
(9.85846 -0.0247906 0)
(9.95271 -0.00872823 0)
(9.64342 -2.87372 0)
(9.64334 -3.35643 0)
(9.58086 -3.84963 -8.40299e-25)
(9.37657 -4.36226 -9.40462e-25)
(9.00856 -4.82456 0)
(8.49924 -5.25098 0)
(7.85252 -5.57187 1.17292e-24)
(7.16586 -5.68053 0)
(6.53298 -5.61126 -1.6336e-27)
(5.99804 -5.42669 -5.66064e-25)
(5.56434 -5.16762 0)
(0.167242 -5.56746 0)
(0.604307 -6.18588 0)
(1.18377 -6.65719 0)
(1.92238 -6.9803 1.4382e-24)
(2.74894 -7.07164 -1.45487e-24)
(3.54322 -6.90997 7.10307e-25)
(4.19427 -6.55789 0)
(4.65887 -6.11591 3.14991e-25)
(4.95721 -5.66472 2.91588e-25)
(5.13337 -5.26023 0)
(5.21729 -4.89602 0)
(9.60402 -2.41742 0)
(9.52149 -2.03304 0)
(9.42614 -1.7053 0)
(9.33491 -1.41723 0)
(9.25734 -1.15407 0)
(9.21064 -0.916434 0)
(9.20453 -0.715363 0)
(9.23089 -0.551105 0)
(9.27907 -0.416647 0)
(9.34227 -0.307097 0)
(9.41592 -0.218879 0)
(9.49678 -0.149158 0)
(9.58257 -0.095539 0)
(9.67176 -0.0558925 0)
(9.76342 -0.0282778 0)
(9.85744 -0.0108682 0)
(9.95236 -0.00107924 0)
(9.39333 -2.63261 0)
(9.40494 -3.0712 0)
(9.37376 -3.52248 -7.78983e-25)
(9.23116 -4.00244 0)
(8.94882 -4.46053 0)
(8.53016 -4.83112 0)
(8.0083 -5.14156 0)
(7.39716 -5.34936 0)
(6.78751 -5.38385 -1.69522e-24)
(6.24016 -5.28404 -1.10461e-24)
(5.7784 -5.09939 5.32046e-25)
(5.4001 -4.85599 0)
(0.135591 -4.89927 0)
(0.48202 -5.52333 0)
(0.972338 -6.06901 -1.25144e-24)
(1.58422 -6.43557 1.32547e-24)
(2.30095 -6.63482 -2.73073e-24)
(3.04436 -6.62125 2.04197e-24)
(3.7158 -6.40976 -6.58388e-25)
(4.24687 -6.06739 0)
(4.62343 -5.67153 2.92026e-25)
(4.86924 -5.27727 2.7158e-25)
(5.01878 -4.92601 0)
(5.09285 -4.60602 0)
(9.35743 -2.21643 0)
(9.29063 -1.8558 0)
(9.2162 -1.5379 0)
(9.14805 -1.24885 0)
(9.1065 -0.990097 0)
(9.10336 -0.773272 0)
(9.13156 -0.597269 0)
(9.18097 -0.453471 0)
(9.24511 -0.336159 0)
(9.31955 -0.241328 0)
(9.40113 -0.165928 0)
(9.48753 -0.107475 0)
(9.57712 -0.0638108 0)
(9.66881 -0.0330122 0)
(9.76201 -0.013316 0)
(9.85674 -0.00307607 0)
(9.95206 0.000630019 0)
(9.16606 -2.38307 0)
(9.18457 -2.7872 0)
(9.17525 -3.20403 -7.12077e-25)
(9.07976 -3.65218 0)
(8.86907 -4.09907 -8.92436e-25)
(8.53128 -4.4907 0)
(8.09098 -4.77485 1.02048e-24)
(7.58088 -4.99113 0)
(7.0159 -5.11686 -1.07662e-24)
(6.47473 -5.10301 -5.34636e-25)
(5.99599 -4.98625 1.04257e-24)
(5.59146 -4.8052 0)
(5.2568 -4.57597 -2.38054e-25)
(0.113716 -4.34644 0)
(0.388147 -4.86912 0)
(0.777529 -5.44287 -2.2455e-24)
(1.31667 -5.90926 2.43473e-24)
(1.93004 -6.17804 -1.27165e-24)
(2.60301 -6.27879 1.29131e-24)
(3.26003 -6.19617 -6.36835e-25)
(3.8278 -5.96278 -6.12042e-25)
(4.26744 -5.63955 0)
(4.57944 -5.28476 -2.70966e-25)
(4.78645 -4.93682 0)
(4.91558 -4.62832 1.19316e-25)
(4.98157 -4.34426 0)
(9.13489 -1.99736 0)
(9.08302 -1.65366 0)
(9.02864 -1.34084 0)
(8.99519 -1.0622 0)
(8.99681 -0.830467 0)
(9.02797 -0.643374 0)
(9.07934 -0.490746 0)
(9.14491 -0.366061 0)
(9.22054 -0.264889 0)
(9.3032 -0.183969 0)
(9.39062 -0.120728 0)
(9.48111 -0.0729895 0)
(9.57346 -0.0388433 0)
(9.66693 -0.0165627 0)
(9.76119 -0.00455865 0)
(9.85628 -0.000356459 0)
(8.96149 -2.12502 0)
(8.98263 -2.50308 0)
(8.98746 -2.89242 0)
(8.92678 -3.31195 -1.47017e-24)
(8.77386 -3.7419 8.24082e-25)
(8.50866 -4.14336 0)
(8.13754 -4.46646 -4.20646e-27)
(7.69623 -4.6756 0)
(7.2109 -4.81858 1.02163e-24)
(6.69381 -4.88544 0)
(6.21151 -4.84002 -5.10095e-25)
(5.78825 -4.71431 -4.93701e-25)
(5.42942 -4.53861 -2.36171e-25)
(5.12992 -4.32211 0)
(0.0979805 -3.87421 -4.00414e-25)
(0.323354 -4.32485 0)
(0.626151 -4.81512 -9.93539e-25)
(1.0642 -5.33089 1.0985e-24)
(1.62543 -5.71755 1.17648e-24)
(2.22135 -5.90128 0)
(2.83983 -5.92795 0)
(3.41589 -5.80247 -1.78659e-24)
(3.8986 -5.56352 0)
(4.26802 -5.26265 -5.40953e-25)
(4.53136 -4.94361 0)
(4.70874 -4.63384 3.57828e-25)
(4.82174 -4.36033 0)
(4.88096 -4.10601 2.12977e-25)
(8.93676 -1.76118 0)
(8.89993 -1.42784 0)
(8.87725 -1.13125 0)
(8.8853 -0.885848 0)
(8.9204 -0.688547 0)
(8.97436 -0.527752 0)
(9.04179 -0.396196 0)
(9.11891 -0.289052 0)
(9.2029 -0.20286 0)
(9.2916 -0.134962 0)
(9.38332 -0.0831672 0)
(9.47679 -0.04559 0)
(9.57114 -0.0205409 0)
(9.66586 -0.00647331 0)
(9.76082 -0.000863191 0)
(8.77952 -1.85769 0)
(8.79948 -2.21722 0)
(8.81209 -2.58554 0)
(8.776 -2.98062 -1.33148e-24)
(8.66805 -3.39177 2.99657e-24)
(8.46509 -3.79262 0)
(8.16088 -4.14285 -8.9432e-25)
(7.77446 -4.40166 0)
(7.34516 -4.54884 -4.35869e-27)
(6.89034 -4.63606 9.82804e-25)
(6.41868 -4.6608 -9.80738e-25)
(5.98638 -4.59473 -4.81552e-25)
(5.6085 -4.46491 4.67713e-25)
(5.28683 -4.2953 0)
(5.0162 -4.09022 2.12181e-25)
(0.0862265 -3.46104 1.25012e-29)
(0.27657 -3.85814 -7.97019e-25)
(0.520909 -4.28647 0)
(0.863115 -4.7388 0)
(1.32996 -5.19312 1.06908e-24)
(1.89639 -5.50451 0)
(2.46246 -5.61799 -1.15353e-24)
(3.02347 -5.59128 -1.14803e-24)
(3.52756 -5.44105 0)
(3.94117 -5.20568 5.33632e-25)
(4.2559 -4.92741 -5.0536e-25)
(4.48164 -4.63928 2.38695e-25)
(4.63577 -4.36137 0)
(4.7357 -4.11698 -1.0611e-25)
(4.78913 -3.88763 0)
(8.76324 -1.50795 0)
(8.75354 -1.19591 0)
(8.7694 -0.938422 0)
(8.8093 -0.731987 0)
(8.86637 -0.563817 0)
(8.93599 -0.425992 0)
(9.01481 -0.313329 0)
(9.10029 -0.222189 0)
(9.19041 -0.14984 0)
(9.28356 -0.0940834 0)
(9.37843 -0.053062 0)
(9.47407 -0.0251342 0)
(9.56982 -0.00880265 0)
(9.66538 -0.00150574 0)
(8.62012 -1.57966 0)
(8.63543 -1.92758 0)
(8.65056 -2.28108 0)
(8.63061 -2.65643 -1.19653e-24)
(8.55631 -3.04927 -1.61796e-27)
(8.4045 -3.44324 1.51855e-24)
(8.16154 -3.808 0)
(7.83258 -4.10635 0)
(7.44417 -4.30822 3.8682e-27)
(7.03418 -4.40576 9.35691e-25)
(6.61128 -4.45105 0)
(6.18096 -4.44565 9.38375e-25)
(5.79104 -4.36615 4.57699e-25)
(5.45071 -4.23516 0)
(5.15975 -4.07187 4.25298e-25)
(4.9132 -3.87705 0)
(0.0771978 -3.09252 -1.113e-29)
(0.241544 -3.4487 -7.12453e-25)
(0.444397 -3.8297 0)
(0.721246 -4.23178 0)
(1.08807 -4.64293 0)
(1.57206 -5.03573 1.03602e-24)
(2.13026 -5.27933 -1.0846e-24)
(2.65958 -5.33702 -1.09479e-24)
(3.16483 -5.27321 1.08082e-24)
(3.60668 -5.11029 -5.22833e-25)
(3.96416 -4.88338 -1.00137e-24)
(4.23564 -4.6266 4.74271e-25)
(4.43167 -4.3652 0)
(4.56712 -4.11419 -1.06049e-25)
(4.65623 -3.89438 -1.00361e-25)
(4.70464 -3.68628 1.91254e-25)
(8.6251 -1.2551 0)
(8.64985 -0.987349 0)
(8.69521 -0.773001 0)
(8.75581 -0.598343 0)
(8.82785 -0.454926 0)
(8.9085 -0.337267 0)
(8.99553 -0.24157 0)
(9.08713 -0.165042 0)
(9.18176 -0.105482 0)
(9.27817 -0.061069 0)
(9.37534 -0.0302154 0)
(9.47251 -0.0114835 0)
(9.56923 -0.00228203 0)
(8.49304 -1.30802 0)
(8.49086 -1.63173 0)
(8.50405 -1.97635 0)
(8.49329 -2.33709 -4.0239e-27)
(8.44286 -2.71382 -1.21905e-24)
(8.33136 -3.09771 1.37487e-24)
(8.14174 -3.46783 -1.52577e-24)
(7.86911 -3.79316 0)
(7.52727 -4.04235 2.61844e-24)
(7.14583 -4.19565 9.00535e-25)
(6.75856 -4.25411 9.07352e-25)
(6.36672 -4.26807 1.80709e-24)
(5.97324 -4.24104 0)
(5.61937 -4.15293 0)
(5.31049 -4.0226 4.20329e-25)
(5.04527 -3.86557 0)
(4.81908 -3.68001 1.90946e-25)
(0.0701154 -2.75863 -5.70281e-25)
(0.214604 -3.08284 0)
(0.386855 -3.42696 0)
(0.617115 -3.78898 0)
(0.914391 -4.1622 0)
(1.29872 -4.53076 -2.62831e-28)
(1.78942 -4.86458 9.999e-25)
(2.32962 -5.04928 -2.07221e-24)
(2.81942 -5.06398 7.98869e-28)
(3.27301 -4.97533 -1.01998e-24)
(3.66177 -4.80756 -4.92795e-25)
(3.97343 -4.59149 -4.6929e-25)
(4.21015 -4.35456 0)
(4.38223 -4.11635 4.22338e-25)
(4.50235 -3.88832 -1.00214e-25)
(4.58235 -3.68949 0)
(4.62637 -3.4997 0)
(8.52751 -1.03198 0)
(8.57879 -0.811024 0)
(8.64319 -0.630827 0)
(8.71779 -0.482546 0)
(8.80032 -0.360459 0)
(8.8889 -0.260645 0)
(8.98193 -0.180264 0)
(9.07803 -0.117117 0)
(9.17598 -0.0694242 0)
(9.27477 -0.0356565 0)
(9.37358 -0.014444 0)
(9.47183 -0.00317236 0)
(8.40314 -1.07186 0)
(8.37487 -1.34644 0)
(8.3736 -1.66832 0)
(8.36622 -2.01981 9.26351e-25)
(8.33144 -2.38385 0)
(8.25022 -2.75701 0)
(8.10486 -3.1263 -1.38416e-24)
(7.88432 -3.4682 0)
(7.59155 -3.75362 1.62908e-24)
(7.24598 -3.95825 2.56211e-24)
(6.87711 -4.07106 8.69995e-25)
(6.51358 -4.0991 8.70432e-25)
(6.1508 -4.08969 0)
(5.78986 -4.04714 0)
(5.46679 -3.95372 0)
(5.18455 -3.82515 4.01115e-25)
(4.94117 -3.67419 0)
(4.7324 -3.49702 -3.64258e-25)
(0.0644709 -2.45208 -2.53456e-25)
(0.19344 -2.7509 2.84214e-25)
(0.342441 -3.06582 -3.16575e-25)
(0.538278 -3.39574 0)
(0.7854 -3.73676 0)
(1.09858 -4.07951 -8.40094e-25)
(1.49359 -4.40565 1.81229e-24)
(1.98227 -4.68487 -9.6171e-25)
(2.49805 -4.81976 -9.88363e-25)
(2.9483 -4.80214 9.83249e-25)
(3.35533 -4.69762 -9.61232e-25)
(3.69901 -4.52998 -1.85483e-24)
(3.97294 -4.32566 0)
(4.18131 -4.10683 4.21503e-25)
(4.33373 -3.88884 0)
(4.44108 -3.68062 -1.89143e-25)
(4.51329 -3.49992 9.01734e-26)
(4.5534 -3.32604 0)
(8.46071 -0.845634 0)
(8.52906 -0.66087 0)
(8.60629 -0.508473 0)
(8.69068 -0.382555 0)
(8.78072 -0.2791 0)
(8.87508 -0.19523 0)
(8.97253 -0.128759 0)
(9.07194 -0.0779482 0)
(9.17233 -0.0413319 0)
(9.27284 -0.0176116 0)
(9.37281 -0.00415378 0)
(8.34153 -0.876558 0)
(8.29249 -1.10077 2.53893e-25)
(8.26804 -1.37369 3.14846e-25)
(8.25129 -1.70133 0)
(8.22522 -2.05696 -4.66435e-25)
(8.16539 -2.42077 0)
(8.05504 -2.78591 0)
(7.8801 -3.13626 1.38726e-24)
(7.63563 -3.44764 0)
(7.33089 -3.69466 1.60208e-24)
(6.9882 -3.86004 0)
(6.63502 -3.93964 8.45248e-25)
(6.29484 -3.94415 0)
(5.95868 -3.91735 0)
(5.62639 -3.86367 0)
(5.32984 -3.76719 3.9528e-25)
(5.07038 -3.64108 0)
(4.84575 -3.49591 -3.64207e-25)
(4.65205 -3.3264 0)
(0.0599242 -2.16741 0)
(0.176558 -2.44583 -1.948e-29)
(0.307475 -2.73734 -2.82655e-25)
(0.477158 -3.04135 0)
(0.686942 -3.35551 0)
(0.947927 -3.67404 0)
(1.2725 -3.98568 8.20151e-25)
(1.67203 -4.27087 0)
(2.15179 -4.50086 -9.23497e-25)
(2.63943 -4.5945 9.41331e-25)
(3.05176 -4.55315 -1.86369e-24)
(3.41745 -4.43918 -9.08711e-25)
(3.72287 -4.27474 8.73898e-25)
(3.96545 -4.08231 8.34915e-25)
(4.15037 -3.87985 3.97142e-25)
(4.28641 -3.6796 -5.66378e-25)
(4.38293 -3.48862 -8.93409e-26)
(4.44841 -3.32371 -8.56227e-26)
(4.48501 -3.16378 0)
(8.414 -0.688182 0)
(8.49384 -0.532416 0)
(8.58001 -0.403271 0)
(8.6714 -0.296664 0)
(8.76692 -0.209696 0)
(8.86554 -0.140198 0)
(8.96625 -0.0864739 0)
(9.0681 -0.0471213 0)
(9.17025 -0.0209153 0)
(9.27199 -0.00520301 0)
(8.29842 -0.712584 0)
(8.23587 -0.898956 1.07922e-25)
(8.19264 -1.12145 5.20063e-25)
(8.15712 -1.39847 0)
(8.12691 -1.73008 -3.98365e-25)
(8.08077 -2.08738 0)
(7.99659 -2.44759 0)
(7.85954 -2.80093 2.49591e-24)
(7.65974 -3.12931 0)
(7.3979 -3.40958 0)
(7.08778 -3.62093 0)
(6.75251 -3.75246 -8.12979e-25)
(6.41649 -3.80507 0)
(6.0985 -3.79145 0)
(5.78646 -3.75172 7.96057e-25)
(5.4794 -3.69012 0)
(5.20583 -3.59215 0)
(4.96605 -3.4689 0)
(4.75766 -3.32925 3.48192e-25)
(4.5771 -3.16673 0)
(0.0562353 -1.90046 1.96453e-25)
(0.162951 -2.16233 -2.23411e-25)
(0.279527 -2.4349 0)
(0.428869 -2.71784 0)
(0.610147 -3.00971 0)
(0.831828 -3.30683 3.40843e-25)
(1.10362 -3.60202 0)
(1.43527 -3.88274 0)
(1.83401 -4.1294 -8.47745e-25)
(2.29974 -4.31594 -8.8477e-25)
(2.75756 -4.37598 -8.95749e-25)
(3.13449 -4.3176 -8.82439e-25)
(3.4638 -4.1987 8.58872e-25)
(3.73662 -4.03932 1.37959e-27)
(3.9529 -3.85844 3.95119e-25)
(4.11816 -3.67076 -9.10606e-28)
(4.24035 -3.48616 -1.7914e-25)
(4.3276 -3.31032 8.47428e-26)
(4.38716 -3.15928 1.62752e-25)
(4.4206 -3.01169 0)
(8.38094 -0.554168 0)
(8.46877 -0.422386 0)
(8.56133 -0.313121 0)
(8.65782 -0.22346 0)
(8.75739 -0.151253 0)
(8.85916 -0.0948506 0)
(8.96228 -0.0529127 0)
(9.06592 -0.0242868 0)
(9.16934 -0.00629736 0)
(8.26787 -0.573605 0)
(8.19617 -0.73025 -1.76198e-27)
(8.14064 -0.915075 3.2033e-25)
(8.08927 -1.14034 0)
(8.04487 -1.42038 0)
(7.99978 -1.75428 0)
(7.93376 -2.1108 0)
(7.82649 -2.46436 3.70686e-27)
(7.66569 -2.80287 0)
(7.44584 -3.10752 0)
(7.17242 -3.35734 0)
(6.86201 -3.53638 -1.53184e-24)
(6.53707 -3.6391 0)
(6.21857 -3.6699 0)
(5.92126 -3.64236 7.73918e-25)
(5.63097 -3.59306 0)
(5.34619 -3.52589 0)
(5.09267 -3.42752 0)
(4.87002 -3.30737 3.46023e-25)
(4.67583 -3.17293 0)
(4.50683 -3.01684 3.14485e-25)
(0.0532355 -1.64786 1.70338e-25)
(0.151906 -1.8963 0)
(0.256995 -2.15344 0)
(0.390199 -2.41917 -2.49737e-25)
(0.549216 -2.69256 0)
(0.740649 -2.97123 3.06261e-25)
(0.972094 -3.25046 -6.69659e-25)
(1.25164 -3.52197 0)
(1.58644 -3.77268 -7.7545e-25)
(1.98 -3.98381 -8.17157e-25)
(2.42813 -4.13264 0)
(2.85591 -4.16567 -6.6191e-28)
(3.20036 -4.09542 0)
(3.49774 -3.97475 -1.62381e-24)
(3.74268 -3.82145 7.80111e-25)
(3.93666 -3.65158 3.73742e-25)
(4.08525 -3.47725 -3.55583e-25)
(4.19559 -3.30655 5.08608e-25)
(4.27478 -3.14407 1.61981e-25)
(4.32912 -3.00531 -1.548e-25)
(4.35967 -2.86873 0)
(8.35741 -0.439749 0)
(8.45096 -0.328306 0)
(8.54818 -0.236357 0)
(8.64844 -0.161772 0)
(8.75102 -0.102948 0)
(8.85514 -0.0586056 0)
(8.96002 -0.0276627 0)
(9.06495 -0.00741499 0)
(8.24611 -0.455267 0)
(8.16798 -0.58768 7.00309e-26)
(8.1041 -0.743027 8.76778e-26)
(8.04225 -0.92984 0)
(7.98505 -1.1572 0)
(7.93045 -1.43918 0)
(7.87044 -1.7737 -4.00782e-25)
(7.78509 -2.1271 -9.64398e-25)
(7.65643 -2.47137 -1.10537e-24)
(7.47513 -2.79284 0)
(7.23982 -3.07302 0)
(6.95973 -3.29391 0)
(6.65281 -3.4442 0)
(6.3399 -3.52262 0)
(6.03863 -3.53587 0)
(5.76037 -3.49769 0)
(5.48963 -3.44135 -7.30849e-25)
(5.22458 -3.37035 0)
(4.98867 -3.27236 6.89884e-25)
(4.78106 -3.15541 0)
(4.59938 -3.02591 -1.21737e-27)
(4.44064 -2.87577 0)
(0.050802 -1.40693 0)
(0.14292 -1.64447 0)
(0.238665 -1.88904 0)
(0.358898 -2.14065 -2.20971e-25)
(0.500243 -2.39873 0)
(0.667926 -2.6617 -2.74482e-25)
(0.867977 -2.92639 -6.02912e-25)
(1.10701 -3.1872 6.56216e-25)
(1.39143 -3.43522 -7.06242e-25)
(1.7259 -3.65736 -7.51196e-25)
(2.11081 -3.83626 0)
(2.53908 -3.95281 -5.14615e-28)
(2.93754 -3.96437 0)
(3.25249 -3.88616 -1.58659e-24)
(3.52188 -3.76588 7.69214e-25)
(3.74281 -3.61918 0)
(3.91772 -3.45967 -3.53926e-25)
(4.05202 -3.29741 6.74914e-25)
(4.15211 -3.13909 -3.21457e-25)
(4.22423 -2.98852 -3.07361e-25)
(4.2739 -2.86072 0)
(4.30181 -2.73398 0)
(8.34068 -0.342103 0)
(8.43841 -0.248267 0)
(8.53909 -0.171637 0)
(8.64217 -0.110658 0)
(8.74699 -0.0641132 0)
(8.85284 -0.0309863 0)
(8.95902 -0.00853561 0)
(8.23062 -0.354442 0)
(8.14788 -0.466519 0)
(8.07813 -0.597902 6.9348e-26)
(8.00909 -0.754741 0)
(7.94328 -0.943099 -2.16272e-25)
(7.87903 -1.17187 0)
(7.81417 -1.45473 -3.34592e-25)
(7.73944 -1.78821 0)
(7.63566 -2.13634 -6.90756e-27)
(7.48762 -2.46914 1.10258e-24)
(7.28914 -2.7721 0)
(7.04258 -3.02792 0)
(6.75983 -3.22191 -1.40851e-24)
(6.45908 -3.34694 0)
(6.15907 -3.405 -1.47039e-24)
(5.87434 -3.40416 0)
(5.61352 -3.35787 -7.14024e-25)
(5.36034 -3.29642 0)
(5.11285 -3.22289 6.79984e-25)
(4.89251 -3.12583 0)
(4.69819 -3.01211 3.1773e-25)
(4.52762 -2.88729 0)
(4.37802 -2.74266 -2.86064e-25)
(0.0488432 -1.17546 0)
(0.13563 -1.40418 7.25539e-26)
(0.22374 -1.63855 0)
(0.333455 -1.8786 1.93976e-25)
(0.460551 -2.12401 0)
(0.609258 -2.37374 -4.89603e-25)
(0.784444 -2.62558 0)
(0.991524 -2.87571 2.95937e-25)
(1.23601 -3.11795 0)
(1.52264 -3.34306 -1.37391e-24)
(1.85383 -3.53843 7.26226e-25)
(2.22747 -3.68853 -1.51101e-24)
(2.63464 -3.77772 7.72367e-25)
(3.0051 -3.77238 -6.8355e-28)
(3.29342 -3.68914 0)
(3.53822 -3.57072 -7.27666e-25)
(3.73836 -3.43081 0)
(3.89681 -3.28098 -3.33896e-25)
(4.01872 -3.12966 -6.40281e-25)
(4.10986 -2.98245 1.52163e-25)
(4.17574 -2.84254 -2.91763e-25)
(4.22121 -2.72457 0)
(4.24667 -2.60669 0)
(8.3289 -0.259103 0)
(8.42972 -0.180763 0)
(8.533 -0.1179 0)
(8.6382 -0.0693649 0)
(8.7447 -0.0342085 0)
(8.85182 -0.00964098 0)
(8.21968 -0.268808 0)
(8.13354 -0.363412 0)
(8.05959 -0.474718 5.65943e-26)
(7.98549 -0.607269 0)
(7.91368 -0.765304 -1.79428e-25)
(7.84276 -0.95473 0)
(7.77143 -1.18422 0)
(7.69635 -1.46688 3.32044e-25)
(7.60732 -1.79774 8.19431e-25)
(7.48627 -2.13871 9.6595e-25)
(7.3211 -2.45833 -1.09632e-24)
(7.10871 -2.74199 0)
(6.85461 -2.97417 -1.30715e-24)
(6.57236 -3.14355 0)
(6.27959 -3.24659 4.29432e-27)
(5.99275 -3.28765 0)
(5.72367 -3.27553 0)
(5.47875 -3.22311 -6.88929e-25)
(5.2414 -3.15801 -6.7138e-25)
(5.00959 -3.08294 -6.52981e-25)
(4.80309 -2.98718 1.25859e-24)
(4.62061 -2.87671 -6.04908e-25)
(4.45994 -2.75628 -2.87519e-25)
(4.31855 -2.61679 0)
(0.0472897 -0.951514 0)
(0.129761 -1.17325 1.2124e-25)
(0.211638 -1.39938 7.22839e-26)
(0.312709 -1.63003 1.68291e-25)
(0.428188 -1.86501 0)
(0.561546 -2.10363 -4.33957e-25)
(0.716769 -2.34438 -2.41696e-25)
(0.898304 -2.58456 -2.66172e-25)
(1.11082 -2.81982 0)
(1.35871 -3.04359 -1.25157e-24)
(1.64516 -3.24671 -3.30378e-28)
(1.97061 -3.41736 -7.00459e-25)
(2.33112 -3.542 7.24636e-25)
(2.71673 -3.6082 7.36505e-25)
(3.06083 -3.58971 0)
(3.32518 -3.50363 -7.14435e-25)
(3.54832 -3.38804 -6.89846e-25)
(3.73032 -3.25489 -1.37082e-27)
(3.87446 -3.11405 3.16657e-25)
(3.98555 -2.97268 3.04377e-25)
(4.06879 -2.8355 -2.9109e-25)
(4.12909 -2.70518 0)
(4.17075 -2.59605 1.33661e-25)
(4.19396 -2.48621 -1.2914e-25)
(8.32071 -0.189093 0)
(8.42388 -0.12462 0)
(8.52913 -0.0743091 0)
(8.63593 -0.03729 0)
(8.74367 -0.0107155 0)
(8.21207 -0.196586 0)
(8.12339 -0.275892 -1.62501e-26)
(8.04639 -0.369968 0)
(7.96864 -0.482218 -5.60001e-26)
(7.89254 -0.615738 0)
(7.81688 -0.774622 0)
(7.74084 -0.964641 -2.20448e-25)
(7.66247 -1.19416 5.46777e-25)
(7.5774 -1.47557 0)
(7.47465 -1.80234 -4.04797e-25)
(7.33769 -2.13452 -1.91908e-24)
(7.15771 -2.43972 0)
(6.9345 -2.70383 1.19683e-24)
(6.67603 -2.91351 0)
(6.39671 -3.06066 1.33481e-24)
(6.11307 -3.14468 0)
(5.83931 -3.17159 -1.37065e-24)
(5.58489 -3.15044 6.80099e-25)
(5.35445 -3.09345 -6.58427e-25)
(5.13138 -3.02583 -6.4155e-25)
(4.91363 -2.94995 6.23032e-25)
(4.71952 -2.85579 -6.00797e-25)
(4.54763 -2.74849 5.7822e-25)
(4.39586 -2.63224 0)
(4.26187 -2.49755 -1.29736e-25)
(0.0460899 -0.733488 0)
(0.125104 -0.949784 9.81498e-26)
(0.20189 -1.1694 6.03971e-26)
(0.29585 -1.39247 0)
(0.401772 -1.61894 0)
(0.522552 -1.84834 -3.8135e-25)
(0.661527 -2.07962 -2.14376e-25)
(0.82237 -2.3109 2.38123e-25)
(1.00904 -2.53903 2.61421e-25)
(1.22544 -2.75932 -2.83628e-25)
(1.47485 -2.96504 3.0126e-28)
(1.75901 -3.14731 0)
(2.07679 -3.29539 0)
(2.42292 -3.39774 0)
(2.78706 -3.44475 -7.03019e-25)
(3.10659 -3.41613 0)
(3.34939 -3.32882 -6.78202e-25)
(3.55338 -3.21669 1.14772e-27)
(3.71948 -3.09014 1.35535e-27)
(3.85106 -2.95766 -6.02601e-25)
(3.95261 -2.82536 0)
(4.02884 -2.69726 0)
(4.08412 -2.57561 1.32616e-25)
(4.12231 -2.47451 0)
(4.14341 -2.37199 0)
(8.31518 -0.130793 0)
(8.42014 -0.0789182 0)
(8.52691 -0.0402028 0)
(8.63491 -0.0117465 0)
(8.20687 -0.136409 0)
(8.11632 -0.202099 -1.24335e-26)
(8.03707 -0.281087 -1.64824e-26)
(7.95664 -0.375942 -4.50024e-26)
(7.87741 -0.489011 -5.65853e-26)
(7.79832 -0.623236 7.18355e-26)
(7.71883 -0.782625 -1.82752e-25)
(7.63771 -0.972756 2.25389e-25)
(7.55239 -1.20161 2.72533e-25)
(7.45763 -1.48077 -4.36999e-27)
(7.34194 -1.80211 -1.22326e-24)
(7.19062 -2.12417 0)
(6.99814 -2.41414 1.07779e-24)
(6.76692 -2.65889 0)
(6.50673 -2.84748 0)
(6.23215 -2.97473 1.30034e-24)
(5.95831 -3.04237 -1.31844e-24)
(5.69727 -3.05752 1.31706e-24)
(5.4565 -3.02918 0)
(5.23926 -2.96882 0)
(5.02911 -2.89955 0)
(4.82404 -2.82345 0)
(4.64105 -2.73105 5.74818e-25)
(4.47869 -2.62687 0)
(4.33496 -2.51458 0)
(4.20769 -2.3844 0)
(0.045193 -0.519976 0)
(0.121511 -0.732175 3.78287e-26)
(0.194138 -0.946758 0)
(0.282252 -1.16386 0)
(0.380276 -1.38347 0)
(0.490682 -1.60532 -3.31252e-25)