/*--------------------------------*- C++ -*----------------------------------*\
| =========                 |                                                 |
| \\      /  F ield         | OpenFOAM: The Open Source CFD Toolbox           |
|  \\    /   O peration     | Version:  4.x                                   |
|   \\  /    A nd           | Web:      www.OpenFOAM.org                      |
|    \\/     M anipulation  |                                                 |
\*---------------------------------------------------------------------------*/
FoamFile
{
    version     2.0;
    format      ascii;
    class       volScalarField;
    location    "200";
    object      k;
}
// * * * * * * * * * * * * * * * * * * * * * * * * * * * * * * * * * * * * * //

dimensions      [0 2 -2 0 0 0 0];

internalField   nonuniform List<scalar> 
12225
(
0.545359
0.81881
0.988963
1.07659
1.10265
1.09675
1.0798
1.04972
1.01757
0.986801
0.95829
0.932062
0.909438
0.888012
0.871812
0.854011
0.844951
0.829454
0.381413
0.39009
0.402892
0.418217
0.431917
0.44799
0.463464
0.483335
0.502829
0.527313
0.54423
0.567011
0.581586
0.602602
0.614711
0.633893
0.643159
0.659888
0.374688
0.373855
0.372604
0.369426
0.36539
0.360103
0.354969
0.34981
0.34553
0.342109
0.339088
0.336831
0.334814
0.333572
0.332377
0.332001
0.331176
0.331394
0.374257
0.371851
0.370094
0.367403
0.364811
0.361182
0.357771
0.353514
0.349672
0.345243
0.341368
0.337097
0.333452
0.329495
0.326136
0.322634
0.319601
0.316569
0.374075
0.371609
0.369727
0.367418
0.365338
0.362743
0.360357
0.357476
0.354824
0.351764
0.349
0.34588
0.343134
0.340149
0.33759
0.334813
0.332509
0.32994
0.373952
0.371598
0.369623
0.367501
0.365598
0.36348
0.361522
0.359336
0.35728
0.355021
0.352915
0.350651
0.348578
0.346391
0.344445
0.342388
0.340615
0.338685
0.373888
0.371595
0.369548
0.367502
0.365633
0.363729
0.361954
0.360111
0.358358
0.356532
0.354794
0.353003
0.351321
0.349607
0.348029
0.346418
0.344968
0.343455
0.37386
0.371588
0.369501
0.367472
0.365593
0.363752
0.362026
0.360314
0.358681
0.357044
0.355476
0.353906
0.352415
0.350929
0.349537
0.348147
0.346867
0.345563
0.373846
0.371581
0.36947
0.367444
0.365549
0.363727
0.362012
0.360351
0.358771
0.357225
0.355747
0.354296
0.352913
0.351557
0.350275
0.349014
0.347834
0.346659
0.373837
0.371573
0.369446
0.367419
0.365508
0.363687
0.361968
0.360323
0.358761
0.357257
0.355824
0.354438
0.353117
0.351839
0.350625
0.349447
0.348332
0.347242
0.373832
0.371567
0.369428
0.367397
0.365476
0.36365
0.361922
0.360276
0.358714
0.357223
0.355803
0.354443
0.353148
0.351906
0.350722
0.349586
0.348503
0.347461
0.373829
0.371561
0.369415
0.36738
0.365452
0.36362
0.361884
0.360233
0.358665
0.357172
0.355751
0.354397
0.353106
0.351874
0.350699
0.349575
0.348503
0.347477
0.373828
0.371557
0.369406
0.367367
0.365433
0.363597
0.361854
0.360198
0.358624
0.357126
0.355701
0.354343
0.353049
0.351815
0.350638
0.349515
0.348442
0.347419
0.373827
0.371554
0.369399
0.367357
0.365419
0.363579
0.361832
0.360171
0.358592
0.35709
0.355659
0.354297
0.352998
0.351761
0.350579
0.349454
0.348377
0.347351
0.373826
0.371551
0.369395
0.367349
0.365408
0.363565
0.361815
0.36015
0.358568
0.357061
0.355627
0.354261
0.352959
0.351717
0.350533
0.349403
0.348325
0.347295
0.373825
0.37155
0.369392
0.367344
0.365401
0.363556
0.361802
0.360135
0.358549
0.35704
0.355603
0.354234
0.352929
0.351685
0.350498
0.349366
0.348285
0.347254
0.373825
0.371549
0.36939
0.367341
0.365396
0.363549
0.361794
0.360125
0.358537
0.357026
0.355586
0.354215
0.352908
0.351663
0.350474
0.34934
0.348259
0.347226
0.373825
0.371549
0.369389
0.36734
0.365394
0.363546
0.36179
0.36012
0.358531
0.357018
0.355578
0.354206
0.352899
0.351651
0.350463
0.349327
0.348245
0.347211
0.373825
0.371549
0.369389
0.36734
0.365395
0.363547
0.36179
0.36012
0.358531
0.357018
0.355578
0.354206
0.352897
0.351651
0.350461
0.349327
0.348244
0.347211
0.373825
0.37155
0.369391
0.367342
0.365397
0.36355
0.361794
0.360124
0.358536
0.357023
0.355584
0.354212
0.352905
0.351658
0.350469
0.349335
0.348253
0.347219
0.373826
0.371551
0.369394
0.367346
0.365403
0.363556
0.361801
0.360133
0.358545
0.357034
0.355595
0.354224
0.352918
0.351672
0.350484
0.34935
0.348268
0.347235
0.373826
0.371553
0.369397
0.367353
0.365411
0.363566
0.361813
0.360146
0.35856
0.35705
0.355612
0.354242
0.352934
0.351689
0.350499
0.349364
0.348279
0.347244
0.373827
0.371557
0.369404
0.367362
0.365422
0.36358
0.361829
0.360163
0.358576
0.357064
0.355622
0.354246
0.352931
0.351675
0.350473
0.349324
0.348223
0.34717
0.373828
0.371566
0.369411
0.367373
0.365434
0.363594
0.361837
0.360163
0.358559
0.357027
0.355556
0.354148
0.352792
0.351492
0.350237
0.349035
0.347872
0.34676
0.373839
0.371581
0.369407
0.36737
0.36542
0.363567
0.361773
0.360052
0.358375
0.356762
0.355188
0.353672
0.352191
0.350763
0.349367
0.348026
0.346712
0.345456
0.373895
0.37159
0.369339
0.367294
0.365301
0.363395
0.36147
0.359598
0.357715
0.355884
0.354056
0.352282
0.350519
0.348814
0.347125
0.345502
0.343896
0.342367
0.374078
0.371549
0.369193
0.367196
0.365074
0.363001
0.36075
0.358524
0.356172
0.353873
0.351514
0.349225
0.346925
0.344707
0.342513
0.340412
0.338355
0.336404
0.374506
0.371821
0.369815
0.36809
0.365749
0.363412
0.360575
0.3578
0.35472
0.351807
0.348823
0.346043
0.343389
0.340909
0.338713
0.336617
0.334917
0.333179
0.376932
0.377951
0.380834
0.384138
0.387592
0.391987
0.396245
0.401055
0.40591
0.411389
0.417171
0.42345
0.430339
0.437377
0.445292
0.452832
0.460949
0.467825
0.451351
0.581273
0.685406
0.76552
0.822489
0.862115
0.886843
0.902536
0.911788
0.915992
0.91517
0.912975
0.907698
0.901143
0.892744
0.884388
0.876323
0.8686
2.8128e-05
0.000258877
0.000769942
0.00208551
0.00524154
0.00992433
0.0152068
0.0205975
0.0259041
0.0309797
0.035633
0.0398459
0.0435548
0.0468171
0.0496058
0.0519274
0.0539543
0.0552988
0.0560667
0.0563436
0.0560591
0.0564766
0.0551278
0.0545998
0.0546359
0.053157
0.0528629
0.051639
0.0500348
0.0477318
0.045736
0.0436044
0.0410922
0.0386689
0.0362768
0.0341304
0.0321309
0.0303203
0.0288566
0.0278075
0.0271293
0.0274036
0.0277882
0.0289014
0.0302912
0.031894
0.0333449
0.0345615
0.0351773
0.0356706
0.0345284
0.0341364
0.0313048
0.0296117
0.0264644
0.022782
0.0185856
0.014372
0.0104791
0.00708113
0.00447997
0.00277051
0.00205517
0.00257076
0.00348705
0.00532533
0.00737654
0.00948011
0.0111789
0.0121615
0.0125668
0.0123482
0.0129164
0.014072
0.0185063
0.0353151
0.0720514
0.116651
0.165027
0.216198
0.265289
0.308608
0.346221
0.377821
0.405384
0.429293
0.449082
0.464996
0.476941
0.487827
0.49696
0.5065
0.519284
0.527757
0.536024
0.538149
0.53559
0.542484
0.558278
0.560192
0.56426
0.578923
0.578063
0.579152
0.575631
0.579467
0.589413
0.588206
0.588889
0.585377
0.585905
0.586321
0.586333
0.58629
0.58688
0.578568
0.578139
0.577444
0.580233
0.574337
0.575436
0.566566
0.566842
0.569413
0.561584
0.560813
0.565711
0.55943
0.562313
0.553981
0.555141
0.555311
0.557426
0.558496
0.560297
0.562902
0.575432
0.569069
0.572723
0.587994
0.5872
0.592086
0.591143
0.597603
0.616924
0.616794
0.618606
0.62576
0.646885
0.64512
0.653584
0.678157
0.681272
0.691191
0.698331
0.698968
0.724702
0.730554
0.744
0.755476
0.766177
0.776033
0.777748
0.793739
0.793317
0.798336
0.798884
0.799755
0.80033
0.79381
0.766353
0.753838
0.738672
0.720934
0.701125
0.674838
0.652162
0.614517
0.590078
0.53024
7.05664e-05
0.000311402
0.00224468
0.00903409
0.0234283
0.0413381
0.0598063
0.0770411
0.0922136
0.105208
0.116184
0.125393
0.133057
0.1394
0.144567
0.148715
0.151964
0.154413
0.156116
0.157155
0.157765
0.157996
0.157203
0.156344
0.154835
0.152001
0.14849
0.144313
0.139549
0.134291
0.128716
0.123015
0.117416
0.112179
0.107422
0.103624
0.100737
0.0990605
0.0996406
0.101081
0.104047
0.109134
0.115202
0.121333
0.126732
0.130724
0.133
0.133249
0.131946
0.128849
0.123165
0.115504
0.106139
0.0953583
0.0832355
0.0703157
0.0575491
0.0454215
0.0345552
0.0256121
0.0193496
0.0163211
0.0194774
0.0229632
0.0352505
0.0444089
0.0555278
0.0650492
0.0731503
0.0783704
0.0803304
0.0855937
0.0993097
0.122661
0.161539
0.222586
0.277134
0.330227
0.383864
0.436593
0.494964
0.550732
0.605903
0.658805
0.708005
0.752496
0.791831
0.824153
0.85011
0.868281
0.872976
0.909023
0.933583
0.950269
0.968667
0.979149
0.986482
0.988944
1.00819
1.01556
1.02348
1.03617
1.04027
1.04834
1.04925
1.05843
1.05947
1.06384
1.06666
1.068
1.06859
1.06731
1.07021
1.06483
1.06011
1.05351
1.04808
1.04139
1.03523
1.02907
1.02343
1.01894
1.01301
1.00723
0.997623
0.988324
0.985729
0.977296
0.970771
0.968992
0.971658
0.963279
0.963698
0.974018
0.963433
0.968142
0.997673
0.992654
1.00014
1.0074
1.01461
1.02318
1.03333
1.04579
1.05821
1.0716
1.08673
1.10262
1.12039
1.13805
1.15814
1.18044
1.2038
1.22989
1.2589
1.29101
1.32834
1.36814
1.41253
1.46078
1.51179
1.56548
1.61878
1.67031
1.72129
1.77357
1.82756
1.8704
1.89988
1.90565
1.87315
1.8215
1.75756
1.68445
1.60604
1.52318
1.44342
1.34851
1.27508
1.14293
9.29764e-05
0.00111914
0.00764357
0.0262517
0.0535529
0.0805734
0.105417
0.127063
0.145535
0.161239
0.174584
0.185931
0.195571
0.203742
0.210629
0.216397
0.221178
0.225095
0.228231
0.23067
0.232498
0.233735
0.234442
0.234756
0.234682
0.233709
0.23166
0.22908
0.225894
0.22216
0.218008
0.213632
0.209294
0.205289
0.201956
0.199687
0.198714
0.199383
0.201132
0.204502
0.208907
0.21387
0.218754
0.222943
0.2259
0.2272
0.226533
0.224205
0.219307
0.212166
0.202955
0.191748
0.178699
0.164023
0.147993
0.130942
0.113599
0.0967247
0.0814827
0.0692835
0.061642
0.0616203
0.0709211
0.0860009
0.102684
0.119725
0.137926
0.157837
0.179362
0.203005
0.230751
0.268536
0.317809
0.370157
0.417913
0.461937
0.514337
0.586406
0.665839
0.74904
0.839797
0.928751
1.01472
1.09447
1.16589
1.22863
1.28247
1.32802
1.36635
1.39859
1.4266
1.45399
1.47748
1.49723
1.51464
1.52846
1.54136
1.55334
1.56546
1.575
1.58279
1.58974
1.59423
1.59747
1.59775
1.6056
1.60696
1.60705
1.61111
1.60862
1.60812
1.60769
1.60706
1.6001
1.59342
1.58542
1.5779
1.56982
1.56171
1.55351
1.54563
1.53743
1.52841
1.51938
1.50802
1.49738
1.48652
1.47336
1.462
1.45116
1.44205
1.43199
1.42205
1.41204
1.39683
1.38594
1.38408
1.38149
1.38158
1.3917
1.39298
1.39825
1.39872
1.4263
1.43074
1.4403
1.45003
1.46113
1.47289
1.48664
1.49978
1.51506
1.53251
1.55324
1.57788
1.60728
1.64185
1.68197
1.72622
1.7762
1.83035
1.88843
1.94744
2.00511
2.06186
2.11943
2.16722
2.20046
2.20256
2.19145
2.17028
2.13701
2.08908
2.02517
1.95145
1.86744
1.78249
1.67943
1.59786
1.464
0.000184655
0.00419147
0.0231286
0.0629036
0.101103
0.133432
0.159987
0.181816
0.199985
0.215303
0.228341
0.239519
0.24914
0.257437
0.26459
0.270751
0.276046
0.280594
0.284481
0.287776
0.290533
0.292795
0.294591
0.295951
0.296828
0.297229
0.29712
0.296212
0.294719
0.292762
0.290566
0.28829
0.286202
0.284616
0.28386
0.284252
0.285752
0.288468
0.292247
0.296753
0.301475
0.30585
0.309305
0.311325
0.3115
0.309635
0.305442
0.298764
0.289765
0.278506
0.265147
0.249904
0.233046
0.214885
0.195808
0.176283
0.157075
0.13923
0.124327
0.114444
0.112016
0.118119
0.134965
0.156805
0.182461
0.212341
0.24534
0.280966
0.32065
0.36601
0.415236
0.461714
0.499771
0.535266
0.582118
0.652
0.738488
0.841852
0.950358
1.06137
1.17141
1.27566
1.37308
1.46208
1.54211
1.61318
1.67553
1.73005
1.77727
1.81836
1.85461
1.8865
1.91441
1.93873
1.95994
1.97867
1.99548
2.01074
2.02391
2.03547
2.04498
2.05303
2.05984
2.06355
2.07084
2.07506
2.08052
2.08068
2.08204
2.08241
2.08171
2.08172
2.07722
2.07028
2.06298
2.05431
2.0453
2.03517
2.02499
2.01438
2.00315
1.99138
1.97898
1.96554
1.9508
1.93571
1.91829
1.90016
1.88241
1.86539
1.84898
1.83262
1.81667
1.80058
1.78481
1.77044
1.7569
1.745
1.73772
1.72714
1.7229
1.71781
1.7163
1.71993
1.72623
1.72683
1.72916
1.73195
1.73109
1.74465
1.7461
1.74993
1.75462
1.76105
1.77023
1.78221
1.79872
1.82131
1.85037
1.8867
1.92773
1.97421
2.02329
2.07455
2.12798
2.18049
2.21527
2.23459
2.23937
2.23812
2.22933
2.21132
2.18065
2.13606
2.08194
2.01431
1.94216
1.85164
1.77203
1.65477
0.00150179
0.0143557
0.0606162
0.11483
0.1562
0.187812
0.212836
0.233248
0.250273
0.264701
0.277059
0.287728
0.296987
0.305064
0.312141
0.318375
0.323897
0.328821
0.333233
0.337199
0.340766
0.343967
0.346811
0.349302
0.351422
0.353165
0.354482
0.355387
0.355947
0.356306
0.356603
0.356952
0.357707
0.359109
0.361434
0.364798
0.369121
0.374225
0.379742
0.385168
0.389917
0.393388
0.395013
0.394351
0.391076
0.385142
0.376446
0.365033
0.35109
0.3349
0.31681
0.297204
0.276503
0.255165
0.233713
0.212795
0.193402
0.176982
0.165659
0.162094
0.167091
0.184998
0.211422
0.244545
0.283005
0.32429
0.36821
0.4158
0.465657
0.513055
0.551537
0.581799
0.616825
0.673892
0.757148
0.862204
0.980185
1.10381
1.22656
1.34685
1.46263
1.57234
1.67545
1.77112
1.85895
1.93881
2.01047
2.07445
2.13091
2.18062
2.22452
2.26299
2.29687
2.32663
2.35298
2.37638
2.39692
2.4152
2.43122
2.44535
2.45771
2.46858
2.47823
2.48661
2.49467
2.50192
2.50788
2.51046
2.51241
2.51248
2.5111
2.50894
2.50417
2.49776
2.49032
2.48165
2.47171
2.46055
2.44886
2.43598
2.42236
2.40784
2.39212
2.37477
2.35651
2.33632
2.31419
2.29175
2.26887
2.24643
2.2238
2.2015
2.1789
2.15617
2.13387
2.11207
2.09163
2.07282
2.05604
2.03973
2.02642
2.01421
2.00424
1.9966
1.98929
1.98218
1.97594
1.96994
1.96294
1.95792
1.94786
1.93675
1.92324
1.9075
1.8898
1.87256
1.86251
1.8571
1.85766
1.86725
1.8827
1.90731
1.93862
1.9753
2.01516
2.04575
2.06768
2.08966
2.11029
2.129
2.14292
2.15151
2.15051
2.13329
2.10175
2.05384
1.99885
1.92894
1.86155
1.76597
0.00612412
0.0378918
0.112019
0.167027
0.205972
0.235628
0.259248
0.27864
0.29488
0.308662
0.320475
0.330683
0.339578
0.347403
0.354361
0.360624
0.366334
0.371608
0.376531
0.381171
0.385569
0.389753
0.393729
0.397497
0.401048
0.404382
0.407505
0.410462
0.413333
0.416257
0.419387
0.422935
0.427108
0.432076
0.437915
0.44456
0.451773
0.459161
0.466183
0.472209
0.476557
0.478504
0.477504
0.473002
0.465374
0.454477
0.440374
0.423314
0.40372
0.382139
0.359171
0.335429
0.311525
0.288067
0.265696
0.245313
0.22832
0.216699
0.213073
0.217502
0.235758
0.264239
0.300584
0.342136
0.386488
0.433484
0.482188
0.530146
0.572281
0.60573
0.635491
0.677137
0.745022
0.841284
0.959538
1.08782
1.21846
1.34768
1.47386
1.5966
1.71544
1.82989
1.93921
2.04243
2.13874
2.22768
2.30887
2.38227
2.44806
2.50668
2.55859
2.60452
2.645
2.68071
2.71229
2.74021
2.76479
2.78655
2.80593
2.82294
2.83813
2.85175
2.86373
2.87455
2.88413
2.89273
2.90004
2.90429
2.90599
2.9049
2.90415
2.90185
2.89754
2.89166
2.88409
2.87506
2.86455
2.85269
2.83964
2.82504
2.80927
2.79213
2.77329
2.75253
2.72985
2.70523
2.67944
2.65325
2.626
2.59845
2.57036
2.54193
2.51311
2.48384
2.45439
2.42508
2.39637
2.36851
2.34169
2.31588
2.29236
2.26974
2.24939
2.23052
2.21291
2.19616
2.17924
2.16312
2.14526
2.1261
2.10148
2.07257
2.03703
1.99527
1.94928
1.89954
1.84678
1.79998
1.75871
1.74027
1.72684
1.7317
1.75086
1.77502
1.79732
1.81656
1.83832
1.86379
1.89338
1.92676
1.96213
1.99407
2.01687
2.02994
2.03122
2.01454
1.98696
1.93992
1.8889
1.81803
0.0141383
0.075859
0.158249
0.211169
0.24874
0.27742
0.300325
0.319113
0.334779
0.347993
0.359254
0.36896
0.37744
0.384968
0.391774
0.398046
0.403936
0.409562
0.415012
0.420352
0.425623
0.43085
0.436042
0.441205
0.446348
0.451491
0.456674
0.461972
0.467492
0.473374
0.479776
0.486859
0.494735
0.503438
0.512867
0.522772
0.532727
0.542165
0.550393
0.556639
0.559989
0.559704
0.554546
0.545658
0.532751
0.515934
0.495504
0.472011
0.446261
0.419193
0.391729
0.364787
0.339231
0.31582
0.295163
0.278372
0.267439
0.264722
0.268696
0.285771
0.312777
0.34726
0.387056
0.430589
0.476231
0.522263
0.566124
0.604428
0.637641
0.672507
0.723776
0.802934
0.909785
1.03556
1.16892
1.30237
1.43339
1.56178
1.68845
1.81324
1.93572
2.05523
2.17075
2.28116
2.38546
2.48287
2.57287
2.65516
2.72971
2.79665
2.85638
2.90947
2.9565
2.99814
3.03499
3.06759
3.0964
3.12194
3.14464
3.16478
3.18276
3.19883
3.21306
3.22569
3.23679
3.24651
3.25472
3.26046
3.26296
3.26304
3.2626
3.26062
3.25673
3.25097
3.24329
3.23384
3.22267
3.20978
3.19498
3.17838
3.16026
3.14051
3.11896
3.09544
3.06979
3.04216
3.01308
2.98284
2.95122
2.91851
2.88482
2.8503
2.81502
2.77916
2.74273
2.70582
2.66871
2.63157
2.59468
2.55824
2.52269
2.48777
2.45378
2.42053
2.38793
2.35602
2.32435
2.29267
2.25793
2.22204
2.18067
2.13397
2.0793
2.01635
1.94232
1.85939
1.77013
1.68345
1.60659
1.56133
1.53449
1.53434
1.54961
1.56645
1.5842
1.60141
1.62014
1.64362
1.67335
1.71071
1.75474
1.80103
1.84484
1.88043
1.90475
1.91657
1.91588
1.89649
1.86732
1.82135
0.0226273
0.113632
0.197111
0.249563
0.286757
0.315098
0.33761
0.355906
0.37099
0.38357
0.394195
0.403311
0.411288
0.418436
0.425013
0.431224
0.437227
0.443147
0.449072
0.455067
0.461172
0.467413
0.473809
0.48038
0.487155
0.49418
0.501526
0.509288
0.517585
0.526551
0.536305
0.546931
0.558427
0.570678
0.583416
0.596216
0.608494
0.619542
0.628565
0.634745
0.636639
0.633432
0.62361
0.609778
0.591231
0.568287
0.541565
0.511957
0.480708
0.449201
0.41872
0.390511
0.365564
0.344794
0.328954
0.31903
0.316586
0.318862
0.331663
0.354173
0.383796
0.419006
0.458159
0.499444
0.540973
0.581288
0.619136
0.65656
0.701148
0.764661
0.853806
0.967013
1.0948
1.22809
1.35994
1.48985
1.61867
1.74683
1.87463
2.00195
2.12818
2.25237
2.3733
2.48986
2.60103
2.70586
2.80364
2.89387
2.97631
3.05093
3.11795
3.17784
3.23118
3.27857
3.32063
3.35791
3.39097
3.42032
3.44643
3.46967
3.49041
3.5089
3.52526
3.53969
3.5523
3.56321
3.57242
3.57938
3.58326
3.58474
3.58414
3.58251
3.57892
3.57325
3.56529
3.5553
3.54331
3.52933
3.5132
3.49501
3.4749
3.45283
3.42876
3.40267
3.37458
3.34427
3.31198
3.27783
3.24178
3.20397
3.16453
3.12361
3.08127
3.03755
2.99248
2.94613
2.89875
2.85046
2.8015
2.75206
2.70241
2.65252
2.6025
2.55232
2.50192
2.4513
2.40091
2.34977
2.29696
2.24229
2.18187
2.11544
2.04079
1.95647
1.8614
1.75714
1.6466
1.54014
1.45166
1.3901
1.3678
1.36911
1.38514
1.40051
1.41473
1.42953
1.44609
1.46575
1.49043
1.5243
1.56817
1.61866
1.67156
1.72138
1.76437
1.79586
1.81622
1.81981
1.81073
1.78839
0.0293682
0.143957
0.229382
0.283082
0.320929
0.349495
0.371868
0.38976
0.404264
0.416162
0.426069
0.434489
0.441848
0.448496
0.454722
0.460743
0.466731
0.472813
0.479082
0.4856
0.49241
0.499542
0.507028
0.514904
0.523221
0.532047
0.54147
0.551596
0.562533
0.57438
0.587192
0.600954
0.615537
0.630684
0.645978
0.660862
0.67464
0.686532
0.695705
0.701328
0.701712
0.694527
0.682617
0.665343
0.64295
0.616022
0.585468
0.552507
0.518568
0.485242
0.454061
0.426359
0.403048
0.385096
0.373582
0.369395
0.36937
0.375785
0.391621
0.414319
0.442602
0.475265
0.510945
0.548469
0.587483
0.628857
0.674984
0.731889
0.807176
0.903292
1.01699
1.14154
1.26928
1.39771
1.52511
1.65208
1.77942
1.90751
2.03642
2.16582
2.29484
2.42245
2.54756
2.66907
2.78584
2.89682
3.00117
3.09825
3.18767
3.2692
3.34296
3.40926
3.46865
3.52167
3.56894
3.61101
3.64846
3.68182
3.71156
3.73809
3.76176
3.78284
3.80148
3.81787
3.83213
3.84437
3.85459
3.86265
3.86798
3.87034
3.87043
3.86907
3.8657
3.86013
3.85213
3.84184
3.82925
3.81437
3.79728
3.77789
3.75612
3.73195
3.70532
3.67619
3.64448
3.61017
3.57338
3.53419
3.49259
3.44863
3.4024
3.35404
3.30362
3.25118
3.19674
3.14037
3.08221
3.02245
2.96121
2.8987
2.83508
2.77047
2.70497
2.6387
2.57172
2.50399
2.4356
2.3674
2.29729
2.22487
2.14832
2.06649
1.97765
1.88017
1.77278
1.65742
1.53605
1.41915
1.32509
1.2601
1.24003
1.2411
1.25028
1.26087
1.27286
1.28659
1.30267
1.32169
1.34477
1.37409
1.41471
1.46487
1.52088
1.57751
1.63052
1.67534
1.71046
1.73237
1.73989
1.7357
0.0346902
0.166153
0.257481
0.313451
0.3523
0.381232
0.403571
0.42113
0.435082
0.446286
0.455433
0.463098
0.469761
0.475811
0.481562
0.487256
0.493078
0.499163
0.505604
0.512467
0.519797
0.527633
0.536014
0.544992
0.554631
0.565015
0.576236
0.588388
0.601552
0.615774
0.631032
0.647212
0.664073
0.681248
0.698228
0.714386
0.729
0.741306
0.750529
0.755961
0.75594
0.747852
0.735394
0.718205
0.696359
0.670286
0.640844
0.609288
0.576866
0.544857
0.514687
0.487693
0.465284
0.44868
0.438639
0.433835
0.434318
0.43785
0.45336
0.473019
0.498631
0.529445
0.565277
0.606319
0.653522
0.708956
0.776228
0.858541
0.955578
1.06382
1.18006
1.30105
1.42352
1.54636
1.66949
1.79358
1.91916
2.0465
2.17551
2.30563
2.43595
2.5656
2.69351
2.81854
2.9395
3.05531
3.16499
3.26781
3.36326
3.45102
3.53099
3.60338
3.66862
3.72728
3.77989
3.827
3.86916
3.90687
3.94061
3.97079
3.99775
4.02176
4.04302
4.0617
4.07792
4.09179
4.10336
4.11261
4.11935
4.12298
4.12422
4.12322
4.12028
4.11497
4.10728
4.09699
4.08403
4.06835
4.04989
4.0286
4.00445
3.97742
3.94746
3.91457
3.87871
3.83988
3.79816
3.75361
3.70622
3.65602
3.60305
3.54743
3.48923
3.42851
3.36526
3.29955
3.23147
3.16119
3.08882
3.0145
2.93839
2.86063
2.7814
2.70094
2.61942
2.53692
2.45332
2.3704
2.28564
2.1992
2.1101
2.01711
1.91835
1.81203
1.69512
1.57033
1.43954
1.31333
1.21459
1.15057
1.12944
1.12535
1.13071
1.13939
1.15063
1.16438
1.1807
1.19994
1.22299
1.25143
1.28893
1.33818
1.39531
1.45535
1.51414
1.5674
1.61252
1.64653
1.66791
1.67592
0.0385424
0.185723
0.282225
0.340485
0.38056
0.410096
0.432596
0.449983
0.463522
0.474156
0.482655
0.489653
0.495673
0.501138
0.506387
0.51169
0.517254
0.523221
0.529697
0.536754
0.544448
0.552821
0.56192
0.571791
0.582514
0.594171
0.606848
0.620621
0.635532
0.651577
0.668675
0.686649
0.705206
0.723946
0.742363
0.759869
0.775824
0.789579
0.800501
0.808014
0.811298
0.809986
0.800496
0.789007
0.773916
0.75501
0.732574
0.70858
0.683734
0.658144
0.632619
0.608419
0.586927
0.56925
0.55623
0.547876
0.543327
0.543454
0.551634
0.567583
0.591623
0.623811
0.664732
0.714642
0.774197
0.844055
0.924676
1.01523
1.11455
1.22067
1.33174
1.446
1.56181
1.67883
1.79726
1.91763
2.04034
2.16554
2.29301
2.42215
2.55219
2.68227
2.81139
2.93841
3.06215
3.18147
3.2953
3.40279
3.50343
3.59676
3.68256
3.7609
3.83214
3.89671
3.95504
4.00763
4.05496
4.09751
4.13573
4.17002
4.20074
4.22814
4.25244
4.27382
4.29242
4.30833
4.32164
4.33236
4.34051
4.34575
4.34827
4.34838
4.34612
4.3412
4.33349
4.32282
4.3091
4.29224
4.2722
4.2489
4.22233
4.19247
4.15932
4.12285
4.08307
4.03996
3.99361
3.94405
3.8913
3.83535
3.77624
3.71404
3.64884
3.58067
3.50955
3.4355
3.35862
3.279
3.19676
3.11199
3.02485
2.93547
2.84407
2.75102
2.65658
2.56091
2.46494
2.36812
2.27024
2.17128
2.07046
1.96634
1.8561
1.73815
1.60537
1.46423
1.32091
1.19682
1.10255
1.04735
1.02472
1.02041
1.02457
1.03279
1.04406
1.05832
1.07531
1.0953
1.1189
1.14748
1.18389
1.23311
1.29116
1.35351
1.41611
1.47505
1.52733
1.56987
1.60047
1.61886
0.0410211
0.202299
0.303231
0.363743
0.405174
0.435505
0.458403
0.475898
0.489342
0.49975
0.507952
0.514614
0.520285
0.525407
0.530343
0.535385
0.54076
0.546636
0.553142
0.560376
0.568416
0.57732
0.587118
0.597857
0.609608
0.622438
0.636437
0.651666
0.668147
0.685849
0.704672
0.724436
0.744879
0.76566
0.78637
0.806552
0.825722
0.843399
0.859115
0.872434
0.882935
0.890152
0.894698
0.897165
0.897643
0.894873
0.883536
0.874423
0.864101
0.851383
0.835972
0.818926
0.802489
0.786685
0.772377
0.760596
0.752417
0.74907
0.750592
0.75869
0.777825
0.807104
0.84608
0.894862
0.954076
1.02232
1.09892
1.18377
1.27605
1.3742
1.47688
1.58287
1.69095
1.80113
1.91359
2.02874
2.14685
2.26798
2.39191
2.51811
2.64596
2.77465
2.90323
3.03062
3.15565
3.27713
3.39391
3.50515
3.61036
3.70892
3.80044
3.8849
3.96247
4.03335
4.09785
4.15638
4.20935
4.25721
4.30039
4.33927
4.37419
4.40543
4.43321
4.45773
4.47913
4.49753
4.513
4.5256
4.53535
4.54215
4.54589
4.54698
4.54529
4.54068
4.53296
4.522
4.50766
4.48984
4.46847
4.44349
4.41488
4.38262
4.3467
4.30712
4.26386
4.21696
4.16644
4.11236
4.05473
3.99356
3.92888
3.86074
3.78921
3.71432
3.63609
3.55453
3.4697
3.38166
3.29051
3.1963
3.09918
2.99926
2.89673
2.79211
2.68553
2.57738
2.46973
2.35967
2.24826
2.13537
2.01988
1.90002
1.77065
1.63281
1.48585
1.3371
1.19392
1.08092
0.994186
0.952485
0.92478
0.924106
0.929408
0.938025
0.949909
0.96501
0.982966
1.00397
1.02852
1.05788
1.09463
1.14442
1.20364
1.26803
1.33368
1.39696
1.45465
1.5038
1.54119
1.56635
0.042091
0.215341
0.319978
0.382519
0.425298
0.456572
0.480142
0.498126
0.511941
0.52265
0.531102
0.537974
0.543827
0.549115
0.554227
0.559469
0.565085
0.571264
0.578164
0.58591
0.594607
0.604333
0.615137
0.627052
0.640101
0.654363
0.669928
0.686862
0.705209
0.724965
0.746068
0.768403
0.791795
0.816027
0.840841
0.865956
0.89108
0.915926
0.940224
0.963726
0.986219
1.00757
1.02784
1.047
1.06476
1.08044
1.09456
1.10733
1.11812
1.12557
1.12718
1.12153
1.11853
1.11325
1.10573
1.09755
1.0908
1.08613
1.08491
1.08758
1.0936
1.11002
1.13518
1.1692
1.21177
1.26141
1.31977
1.38812
1.46531
1.54915
1.6381
1.7316
1.82844
1.92834
2.03147
2.13811
2.24845
2.36241
2.47984
2.60036
2.72342
2.84828
2.9741
3.09985
3.22441
3.34663
3.46544
3.57992
3.68927
3.79269
3.88969
3.98004
4.06373
4.14084
4.21156
4.27618
4.33505
4.38854
4.43704
4.4809
4.52044
4.55594
4.58761
4.61566
4.64021
4.66141
4.67933
4.69405
4.70558
4.71394
4.7191
4.72125
4.72034
4.71632
4.70891
4.69797
4.68332
4.66486
4.64249
4.61616
4.58584
4.55153
4.51319
4.47084
4.42445
4.37407
4.31971
4.26144
4.19927
4.13324
4.06336
3.9897
3.91231
3.83121
3.74641
3.65791
3.56571
3.46989
3.37051
3.26753
3.16106
3.05121
2.9379
2.82113
2.70369
2.58506
2.46283
2.33768
2.2097
2.07827
1.94096
1.79894
1.65206
1.5003
1.34635
1.19942
1.06743
0.968636
0.894413
0.861875
0.839071
0.839804
0.844962
0.853927
0.866596
0.882624
0.901615
0.923679
0.949333
0.97977
1.01758
1.0684
1.12907
1.19538
1.26374
1.33062
1.39278
1.44735
1.49062
1.52361
0.0421508
0.224658
0.331955
0.396057
0.440034
0.472328
0.496838
0.515732
0.530459
0.542093
0.551478
0.559284
0.566067
0.572295
0.578355
0.584558
0.591164
0.598382
0.606396
0.615361
0.625407
0.636632
0.649103
0.662865
0.677972
0.694476
0.712448
0.732003
0.753201
0.776114
0.800754
0.827096
0.855084
0.884629
0.915631
0.947977
0.981547
1.01622
1.05187
1.08838
1.12562
1.16346
1.20175
1.2403
1.27864
1.31622
1.3525
1.38713
1.41951
1.44871
1.47402
1.49663
1.51641
1.53219
1.54025
1.54195
1.5443
1.54435
1.54292
1.54136
1.54173
1.5463
1.55356
1.56811
1.58775
1.61312
1.64598
1.68885
1.74056
1.7997
1.86535
1.93692
2.01318
2.09395
2.17926
2.26947
2.36526
2.46598
2.57159
2.68181
2.79606
2.91365
3.03374
3.1553
3.27717
3.39818
3.51721
3.6332
3.74519
3.8523
3.95382
4.04937
4.13873
4.22184
4.29871
4.3695
4.43444
4.49383
4.54797
4.59717
4.64173
4.68188
4.71785
4.74981
4.77791
4.80226
4.82297
4.8401
4.85371
4.86383
4.87052
4.87385
4.87388
4.8707
4.86384
4.85309
4.83828
4.8193
4.79604
4.76846
4.73652
4.70023
4.65958
4.61454
4.56512
4.51135
4.45326
4.39092
4.32436
4.25363
4.17876
4.0998
4.0168
3.92979
3.83876
3.74369
3.64449
3.54124
3.43402
3.32232
3.20616
3.08523
2.96226
2.83565
2.70676
2.57201
2.43254
2.28734
2.13556
1.98011
1.82244
1.66234
1.50305
1.34495
1.19392
1.05846
0.945569
0.861912
0.804492
0.778853
0.760938
0.763585
0.769048
0.778743
0.792298
0.809246
0.829164
0.852226
0.878923
0.910501
0.949532
1.00195
1.06419
1.13234
1.20313
1.27313
1.33915
1.39829
1.44656
1.48452
0.041182
0.229422
0.338288
0.403479
0.448492
0.481876
0.507576
0.52779
0.54397
0.557176
0.568225
0.577759
0.58633
0.594385
0.602305
0.610401
0.618946
0.628172
0.63829
0.649483
0.661911
0.675686
0.690894
0.707599
0.725878
0.745824
0.767552
0.791133
0.816677
0.844329
0.874137
0.906174
0.940486
0.977069
1.01593
1.05707
1.10051
1.14625
1.19424
1.24445
1.29677
1.35105
1.40704
1.46429
1.52229
1.58052
1.63862
1.69603
1.75215
1.80627
1.85772
1.90594
1.95015
1.98928
2.02203
2.04995
2.07308
2.08922
2.09764
2.10061
2.10184
2.10075
2.09854
2.09742
2.09877
2.10437
2.11212
2.12595
2.1456
2.17182
2.20436
2.24295
2.28801
2.33965
2.39795
2.46272
2.53396
2.61122
2.69577
2.78745
2.88544
2.98912
3.09767
3.20994
3.32469
3.44068
3.55667
3.67144
3.78388
3.89289
3.9976
4.09735
4.19171
4.28037
4.36317
4.44008
4.51117
4.57661
4.63663
4.69147
4.74135
4.78649
4.82709
4.86328
4.89522
4.92299
4.9467
4.96641
4.98219
4.9941
5.0022
5.00659
5.00733
5.00497
4.99859
4.98786
4.9727
4.95297
4.92859
4.89952
4.86575
4.82729
4.78412
4.73623
4.68365
4.6264
4.5645
4.49803
4.42707
4.35166
4.27182
4.18758
4.09903
4.00617
3.90897
3.80705
3.70036
3.58909
3.47323
3.35343
3.22858
3.09852
2.9648
2.82371
2.67697
2.52091
2.3567
2.18673
2.0125
1.83668
1.66285
1.49155
1.3293
1.17542
1.03914
0.924168
0.833628
0.768009
0.726055
0.700685
0.693289
0.695339
0.701382
0.711943
0.726297
0.743949
0.764539
0.788367
0.815942
0.848665
0.889068
0.943203
1.00688
1.07661
1.14948
1.22212
1.29143
1.35448
1.40713
1.44985
0.0422362
0.230093
0.339068
0.404592
0.450277
0.484678
0.511726
0.53359
0.551668
0.566991
0.580339
0.592316
0.603436
0.614119
0.624733
0.635596
0.647
0.659205
0.67246
0.686981
0.702953
0.720504
0.739732
0.760717
0.78356
0.808378
0.835322
0.864542
0.896113
0.930095
0.96663
1.00585
1.04778
1.09247
1.14001
1.19051
1.24403
1.30063
1.36033
1.42311
1.48892
1.55758
1.62884
1.70235
1.77784
1.85491
1.93307
2.01178
2.09041
2.16824
2.24445
2.31814
2.38834
2.45403
2.51423
2.56839
2.61577
2.65521
2.68646
2.70983
2.72374
2.7298
2.73046
2.7261
2.71828
2.70861
2.69874
2.68865
2.67967
2.67348
2.67091
2.67329
2.68109
2.69641
2.72074
2.75103
2.78766
2.83212
2.88628
2.94898
3.02008
3.10006
3.1882
3.28322
3.38388
3.48886
3.59669
3.70589
3.81513
3.92309
4.0286
4.13072
4.22867
4.32186
4.40986
4.49239
4.56933
4.64068
4.70652
4.76698
4.82223
4.87242
4.91769
4.95816
4.99392
5.02507
5.05166
5.07377
5.09145
5.10478
5.11384
5.11875
5.11966
5.11772
5.11141
5.10022
5.08416
5.06316
5.03714
5.0061
4.97002
4.92891
4.88278
4.83164
4.77555
4.71455
4.64856
4.5776
4.50179
4.42121
4.33587
4.24577
4.15104
4.05152
3.94824
3.84018
3.72671
3.60821
3.48561
3.35576
3.21874
3.07493
2.92333
2.76063
2.5891
2.40893
2.22143
2.02984
1.83704
1.64801
1.46709
1.29678
1.14469
1.00724
0.89549
0.803589
0.734131
0.686178
0.65532
0.635226
0.631541
0.634134
0.641241
0.652599
0.66753
0.685553
0.706491
0.730708
0.758875
0.792634
0.83489
0.890357
0.955116
1.02601
1.10051
1.17522
1.24732
1.3137
1.37028
1.41697
0.0439452
0.226994
0.334708
0.399743
0.445609
0.480765
0.509084
0.532681
0.552909
0.570764
0.586856
0.601744
0.615909
0.629739
0.6436
0.657826
0.672748
0.688676
0.705915
0.724729
0.745326
0.767835
0.792362
0.819018