/*--------------------------------*- C++ -*----------------------------------*\
| =========                 |                                                 |
| \\      /  F ield         | OpenFOAM: The Open Source CFD Toolbox           |
|  \\    /   O peration     | Version:  4.x                                   |
|   \\  /    A nd           | Web:      www.OpenFOAM.org                      |
|    \\/     M anipulation  |                                                 |
\*---------------------------------------------------------------------------*/
FoamFile
{
    version     2.0;
    format      ascii;
    class       volScalarField;
    location    "200";
    object      nut;
}
// * * * * * * * * * * * * * * * * * * * * * * * * * * * * * * * * * * * * * //

dimensions      [0 2 -1 0 0 0 0];

internalField   nonuniform List<scalar> 
12225
(
5.33487e-06
8.14787e-06
1.00339e-05
1.11549e-05
1.16634e-05
1.18314e-05
1.18669e-05
1.17388e-05
1.15641e-05
1.13822e-05
1.12054e-05
1.10358e-05
1.08913e-05
1.07444e-05
1.06453e-05
1.05112e-05
1.04685e-05
1.03453e-05
0.000200283
5.96593e-05
4.2498e-05
3.6372e-05
3.35427e-05
3.24854e-05
3.21678e-05
3.26264e-05
3.32343e-05
3.3032e-05
3.26429e-05
3.28337e-05
3.27262e-05
3.31372e-05
3.31936e-05
3.37703e-05
3.39973e-05
3.48027e-05
0.00101144
0.000322833
0.000213661
0.00016113
0.000133444
0.000113961
0.000102333
9.25981e-05
8.62179e-05
7.9165e-05
7.44632e-05
6.94049e-05
6.61963e-05
6.26303e-05
6.05278e-05
5.79847e-05
5.666e-05
5.48756e-05
0.000970114
0.000661473
0.000548037
0.00044203
0.000380371
0.000327729
0.000295825
0.000264757
0.000245705
0.000223827
0.000210365
0.000194352
0.000184918
0.000172948
0.000166346
0.000157253
0.000152728
0.000145577
0.000889348
0.000808929
0.000765079
0.000694493
0.000641866
0.000584094
0.000545232
0.000502589
0.000475091
0.00044316
0.000422809
0.000397865
0.000382621
0.000362851
0.000351613
0.000335755
0.000327743
0.000314643
0.000857665
0.000846087
0.000834136
0.000808978
0.000786625
0.00075346
0.00072817
0.000695946
0.00067277
0.000644375
0.000624584
0.00060011
0.000583833
0.000562973
0.000550166
0.000532388
0.000522851
0.000507447
0.000852833
0.000849787
0.000846706
0.000840756
0.000833702
0.000823462
0.000813149
0.000797956
0.000785858
0.000769484
0.000756904
0.000740661
0.000728812
0.000713596
0.000703333
0.000689498
0.000681187
0.000668625
0.000851897
0.00085011
0.000848831
0.000846424
0.000844022
0.000839964
0.000835686
0.000830328
0.000824564
0.000816826
0.000810081
0.000801114
0.000794001
0.000784796
0.00077805
0.000769134
0.000763265
0.000754632
0.000851681
0.000850285
0.000849339
0.000847985
0.000846776
0.000844943
0.000843067
0.000840676
0.000838198
0.000835167
0.00083171
0.000827863
0.000823955
0.000819281
0.000815294
0.00081041
0.00080657
0.000801606
0.000851612
0.000850453
0.000849542
0.000848531
0.000847653
0.000846559
0.000845533
0.000844303
0.000843109
0.000841643
0.000840227
0.000838413
0.000836804
0.000834697
0.000832947
0.000830606
0.000828841
0.000826298
0.000851575
0.000850562
0.000849671
0.000848777
0.00084799
0.00084712
0.000846349
0.000845488
0.000844731
0.00084383
0.000843046
0.000842075
0.000841246
0.000840212
0.00083935
0.000838282
0.00083741
0.000836312
0.000851557
0.00085062
0.000849754
0.000848913
0.000848154
0.00084737
0.000846664
0.000845929
0.000845279
0.000844579
0.000843962
0.000843286
0.000842688
0.000842035
0.000841451
0.000840823
0.000840257
0.000839644
0.000851549
0.000850651
0.000849803
0.000848991
0.000848241
0.000847499
0.000846811
0.000846128
0.000845502
0.000844871
0.000844295
0.000843709
0.000843176
0.000842632
0.000842133
0.000841629
0.000841163
0.000840687
0.000851545
0.000850666
0.00084983
0.000849034
0.000848288
0.000847565
0.000846885
0.000846223
0.000845606
0.000845
0.000844437
0.000843878
0.000843363
0.000842849
0.000842376
0.000841902
0.000841467
0.000841026
0.00085154
0.000850671
0.000849843
0.000849054
0.00084831
0.000847596
0.00084692
0.000846267
0.000845654
0.000845056
0.000844498
0.00084395
0.00084344
0.000842936
0.00084247
0.000842005
0.000841581
0.000841149
0.000851537
0.000850673
0.000849849
0.000849065
0.000848321
0.00084761
0.000846935
0.000846287
0.000845673
0.000845081
0.000844522
0.000843979
0.00084347
0.00084297
0.000842507
0.000842045
0.000841625
0.000841196
0.000851538
0.000850676
0.000849855
0.000849072
0.000848328
0.000847618
0.000846942
0.000846296
0.000845681
0.000845091
0.000844531
0.000843992
0.000843481
0.000842985
0.00084252
0.000842063
0.000841641
0.000841216
0.000851538
0.000850675
0.000849854
0.000849071
0.000848326
0.000847615
0.000846939
0.000846292
0.000845676
0.000845085
0.000844524
0.000843984
0.000843472
0.000842976
0.000842509
0.000842053
0.000841629
0.000841206
0.000851537
0.000850672
0.000849848
0.000849064
0.000848317
0.000847606
0.000846927
0.00084628
0.000845662
0.000845072
0.000844508
0.000843969
0.000843454
0.000842959
0.00084249
0.000842034
0.000841609
0.000841185
0.000851537
0.000850673
0.000849849
0.000849065
0.000848318
0.000847607
0.000846928
0.00084628
0.000845661
0.000845069
0.000844505
0.000843961
0.000843448
0.000842947
0.00084248
0.000842015
0.000841595
0.000841162
0.000851539
0.000850673
0.000849843
0.000849057
0.000848308
0.000847595
0.00084691
0.000846259
0.000845632
0.000845037
0.000844463
0.000843914
0.00084339
0.00084288
0.000842402
0.000841922
0.000841491
0.000841038
0.00085154
0.000850671
0.000849825
0.000849038
0.000848276
0.000847558
0.000846851
0.000846186
0.000845528
0.000844907
0.000844286
0.000843696
0.000843107
0.000842538
0.000841979
0.00084142
0.000840892
0.000840341
0.000851528
0.000850668
0.000849776
0.000848978
0.000848171
0.000847401
0.000846584
0.000845796
0.000844939
0.000844106
0.000843199
0.000842314
0.000841351
0.000840413
0.000839395
0.00083841
0.000837349
0.00083635
0.000851488
0.000850741
0.000849571
0.000848601
0.000847438
0.000846147
0.000844606
0.000842971
0.000840958
0.000838881
0.000836437
0.000833969
0.000831218
0.000828448
0.000825484
0.00082243
0.00081935
0.000816524
0.000851714
0.000851175
0.000847589
0.000844923
0.000840807
0.000835977
0.000830975
0.000825034
0.000817317
0.000809862
0.000801422
0.000793619
0.000785018
0.000777289
0.000768819
0.000761457
0.000753292
0.000746501
0.000855422
0.000849183
0.000831864
0.000816163
0.0008013
0.000783878
0.000762776
0.000742874
0.000721464
0.000702638
0.000683144
0.000666515
0.000649329
0.000634994
0.000619982
0.000607783
0.000594661
0.000584372
0.000876748
0.000811151
0.00074306
0.000695837
0.000644027
0.000599071
0.000556915
0.000523116
0.000491626
0.000466802
0.000443078
0.000424594
0.000406342
0.00039234
0.000377969
0.00036718
0.000355583
0.000347128
0.00088966
0.000583757
0.000451953
0.000372386
0.000313415
0.000274168
0.000244677
0.000223758
0.000206299
0.00019348
0.000182002
0.000173623
0.000165656
0.000159973
0.000154208
0.000150226
0.000145891
0.000142968
0.0003822
0.000153349
0.000110386
8.74488e-05
7.48625e-05
6.7606e-05
6.29967e-05
6.00847e-05
5.80696e-05
5.68382e-05
5.60312e-05
5.57153e-05
5.55956e-05
5.5811e-05
5.60836e-05
5.5907e-05
5.53309e-05
5.47524e-05
6.25232e-06
8.11109e-06
9.64554e-06
1.08745e-05
1.17933e-05
1.24732e-05
1.29427e-05
1.32827e-05
1.35276e-05
1.36952e-05
1.37836e-05
1.38465e-05
1.38573e-05
1.38429e-05
1.37943e-05
1.37409e-05
1.36872e-05
1.36342e-05
2.45367e-09
1.03637e-07
3.07172e-07
8.25839e-07
2.04173e-06
3.7776e-06
5.64677e-06
7.46665e-06
9.17838e-06
1.07488e-05
1.21348e-05
1.33486e-05
1.43857e-05
1.52747e-05
1.60176e-05
1.66207e-05
1.71403e-05
1.74992e-05
1.77047e-05
1.77585e-05
1.76019e-05
1.77735e-05
1.73561e-05
1.71335e-05
1.72376e-05
1.67711e-05
1.67083e-05
1.63855e-05
1.59616e-05
1.5338e-05
1.47569e-05
1.41624e-05
1.34592e-05
1.27611e-05
1.20625e-05
1.14235e-05
1.08285e-05
1.02838e-05
9.83901e-06
9.51752e-06
9.30192e-06
9.40029e-06
9.49313e-06
9.83881e-06
1.02461e-05
1.07125e-05
1.11241e-05
1.14533e-05
1.16061e-05
1.17211e-05
1.13307e-05
1.12365e-05
1.03197e-05
9.82498e-06
8.85897e-06
7.71952e-06
6.38641e-06
5.01784e-06
3.71916e-06
2.55307e-06
1.63671e-06
1.02156e-06
7.61512e-07
9.52867e-07
1.28794e-06
1.95629e-06
2.68399e-06
3.41128e-06
3.9748e-06
4.27495e-06
4.38856e-06
4.29609e-06
4.48273e-06
4.85096e-06
6.28612e-06
1.14793e-05
2.10951e-05
3.02966e-05
3.73366e-05
4.05212e-05
4.28222e-05
4.43149e-05
4.53569e-05
4.6046e-05
4.66532e-05
4.71805e-05
4.75292e-05
4.76899e-05
4.76275e-05
4.76065e-05
4.7527e-05
4.75704e-05
4.79783e-05
4.80286e-05
4.80963e-05
4.76477e-05
4.68234e-05
4.68551e-05
4.76697e-05
4.73166e-05
4.71684e-05
4.7912e-05
4.73875e-05
4.70509e-05
4.63664e-05
4.62996e-05
4.67391e-05
4.63145e-05
4.60638e-05
4.55112e-05
4.52968e-05
4.50991e-05
4.48955e-05
4.47121e-05
4.45986e-05
4.38353e-05
4.36933e-05
4.3547e-05
4.36838e-05
4.31852e-05
4.32273e-05
4.25396e-05
4.25552e-05
4.27567e-05
4.21868e-05
4.21583e-05
4.25717e-05
4.215e-05
4.24219e-05
4.18521e-05
4.2006e-05
4.20919e-05
4.23289e-05
4.2485e-05
4.26963e-05
4.29626e-05
4.39874e-05
4.35544e-05
4.38602e-05
4.50298e-05
4.49398e-05
4.52476e-05
4.50724e-05
4.54191e-05
4.67093e-05
4.65104e-05
4.64612e-05
4.68242e-05
4.82763e-05
4.8093e-05
4.87617e-05
5.07665e-05
5.13285e-05
5.25858e-05
5.3844e-05
5.48308e-05
5.80895e-05
6.01394e-05
6.33007e-05
6.69932e-05
7.16199e-05
7.76146e-05
8.48194e-05
8.90328e-05
8.86772e-05
8.89354e-05
8.8763e-05
8.85926e-05
8.88158e-05
8.91797e-05
8.65122e-05
8.56599e-05
8.45776e-05
8.33453e-05
8.20553e-05
8.01228e-05
7.16794e-05
6.22826e-05
5.59776e-05
4.86648e-05
6.15539e-09
1.42759e-07
1.86587e-06
8.60661e-06
2.39922e-05
4.52179e-05
6.94959e-05
9.42855e-05
0.000117598
0.000137947
0.000154761
0.000168036
0.000177963
0.000185097
0.000189647
0.000192173
0.000193125
0.000192854
0.000191599
0.000189499
0.000186827
0.000183931
0.000179868
0.000176009
0.00017044
0.00016245
0.000153618
0.000144514
0.000135579
0.000127011
0.000118956
0.000111494
0.000105999
0.000101088
9.64783e-05
9.51049e-05
9.28849e-05
9.2929e-05
9.57286e-05
9.99436e-05
0.000106079
0.000114609
0.000123881
0.000132459
0.000139138
0.000142184
0.000143221
0.000141786
0.000136708
0.000131309
0.000122804
0.000112667
0.000101123
8.8039e-05
7.50532e-05
6.07245e-05
4.88266e-05
3.79332e-05
2.86339e-05
2.2072e-05
1.70547e-05
1.75578e-05
2.37999e-05
3.1987e-05
5.05568e-05
5.80123e-05
6.72488e-05
6.73199e-05
6.59267e-05
5.94093e-05
4.93849e-05
4.37048e-05
4.33362e-05
4.6683e-05
5.44787e-05
6.70429e-05
7.92978e-05
8.96888e-05
0.000102778
0.000113983
0.000134011
0.00015725
0.000181179
0.000207858
0.000232817
0.000256432
0.000278723
0.000297543
0.000314182
0.000326554
0.000333382
0.000351161
0.000363775
0.000372968
0.000382283
0.000388704
0.000393522
0.000396802
0.000406484
0.000411343
0.000415895
0.000422766
0.000425878
0.00043071
0.00043255
0.000437745
0.000439689
0.000442959
0.000445671
0.000447107
0.00044883
0.000449158
0.000451217
0.000449495
0.000447888
0.000444516
0.000441249
0.000436674
0.000433613
0.000429795
0.000426591
0.000423914
0.000420795
0.00041802
0.000413417
0.000409285
0.000407857
0.000405598
0.000405716
0.000402385
0.000399577
0.000393046
0.000396047
0.0003974
0.000389472
0.000386559
0.000394763
0.000392484
0.000393208
0.000396837
0.000396117
0.000391485
0.000393969
0.00039394
0.000398193
0.000401548
0.00040716
0.000411297
0.000417772
0.000421102
0.000428049
0.000433461
0.000440738
0.000448687
0.000456961
0.000466605
0.000477655
0.000488456
0.000501433
0.000514903
0.000529509
0.000544662
0.000559815
0.000573811
0.000586781
0.000599726
0.000616094
0.000626895
0.000640236
0.000654292
0.000659675
0.000654095
0.000640924
0.000623833
0.000603065
0.000582473
0.000560273
0.000525877
0.000497463
0.000429479
8.10999e-09
4.34841e-07
4.56073e-06
2.02853e-05
5.14897e-05
9.14364e-05
0.000139044
0.00018974
0.000238883
0.000284024
0.000323867
0.000357634
0.000385176
0.000406725
0.000422503
0.000433407
0.000440917
0.000444921
0.000446036
0.000444716
0.000441359
0.000436269
0.000429719
0.00042213
0.000413024
0.000401486
0.000387606
0.000372787
0.000357414
0.000342004
0.000327096
0.000313161
0.00030139
0.000291684
0.0002842
0.000280289
0.000278891
0.000281033
0.0002868
0.000295907
0.000307347
0.000320028
0.00033241
0.00034301
0.000350551
0.000353958
0.000353242
0.00034904
0.000339487
0.000326836
0.000309985
0.000289976
0.000266977
0.000241091
0.0002139
0.000184587
0.000156888
0.000131376
0.000109862
9.51736e-05
8.68862e-05
9.22204e-05
0.000105881
0.000120473
0.000130648
0.000135357
0.000135678
0.000131227
0.000127018
0.000123126
0.000118915
0.000119532
0.000126699
0.000137092
0.000146344
0.000158073
0.000170924
0.00020562
0.000258565
0.000310655
0.000374341
0.000438868
0.000502399
0.00056467
0.000619803
0.000669267
0.000712321
0.000748747
0.000780159
0.000806422
0.000829407
0.000850749
0.000868783
0.000884244
0.000897496
0.000909047
0.000919586
0.000929982
0.000940268
0.000949573
0.000957891
0.000965284
0.000967836
0.000974015
0.000974418
0.000977757
0.000981489
0.000979665
0.000985333
0.000981871
0.000983472
0.000981735
0.000975391
0.000970935
0.000958954
0.000952967
0.000947318
0.000942582
0.000942418
0.000929435
0.000929943
0.00092413
0.00091672
0.000908824
0.000893462
0.000889667
0.000879568
0.00086813
0.000857115
0.000839031
0.000836039
0.000826374
0.00081679
0.000806349
0.000785062
0.000777484
0.000766972
0.000767582
0.000755848
0.000759061
0.000753607
0.000750655
0.000747559
0.00076135
0.000758294
0.000764874
0.000768901
0.000771801
0.000779169
0.000786364
0.000793593
0.000801147
0.000808272
0.000819032
0.000830192
0.000843317
0.000857916
0.000874448
0.000892542
0.000912511
0.000935267
0.000955704
0.000979769
0.00100746
0.000958246
0.000916619
0.000884872
0.000892297
0.000943258
0.000998294
0.0010355
0.00106612
0.00109884
0.00113057
0.00115625
0.00115539
0.0011229
0.0010625
0.0010189
0.000906807
1.6105e-08
1.19611e-06
1.18219e-05
4.6862e-05
9.89551e-05
0.000162815
0.000231655
0.000299999
0.000364289
0.000422412
0.000472926
0.000515722
0.000551283
0.000580153
0.00060284
0.000619876
0.000631872
0.000640774
0.000646273
0.000648298
0.00064734
0.000643758
0.000637861
0.000629751
0.000619456
0.000607156
0.000593057
0.000576955
0.000559759
0.000542162
0.000525033
0.000509048
0.000495142
0.000483985
0.00047614
0.000472201
0.00047191
0.000475349
0.000482202
0.000491963
0.000503207
0.000514433
0.000524365
0.000531839
0.000535914
0.000536097
0.000531831
0.000522813
0.000509216
0.000491258
0.000468804
0.00044226
0.000411754
0.000377556
0.000340636
0.000301587
0.000263251
0.000227803
0.000197702
0.00017603
0.00016403
0.00016127
0.000167614
0.000170692
0.000175886
0.000180888
0.000183917
0.000184619
0.000185083
0.000187607
0.000193142
0.000200215
0.000206372
0.000213818
0.00023499
0.000277825
0.000341844
0.00042516
0.000520862
0.000614122
0.000714312
0.000808298
0.000896739
0.000977774
0.00104901
0.00111173
0.00116595
0.00121332
0.00125415
0.00128989
0.0013221
0.00134969
0.00137076
0.00138915
0.00140223
0.00142007
0.00143053
0.00144726
0.00145729
0.00146567
0.00147109
0.00147222
0.00148156
0.00148379
0.00148751
0.00148882
0.00149188
0.00148949
0.00148258
0.00148771
0.00148242
0.00147852
0.0014694
0.00145061
0.00144051
0.00143053
0.00142568
0.00140736
0.00140375
0.00139061
0.00137057
0.0013631
0.00135741
0.00134429
0.00132773
0.00131099
0.00128013
0.00126635
0.00123657
0.00122288
0.00119448
0.00117819
0.00115792
0.00114423
0.00113328
0.00111699
0.00108947
0.00107938
0.00106214
0.0010498
0.00103798
0.00102835
0.00101752
0.00101627
0.00101524
0.00101478
0.00101567
0.00101366
0.00100784
0.00101807
0.00102049
0.00102329
0.00102985
0.0010371
0.00104474
0.00105295
0.00106259
0.00107469
0.00108899
0.00110621
0.00109835
0.00104507
0.0009941
0.000951163
0.000913922
0.000890148
0.000897026
0.000933136
0.000978391
0.00102675
0.00107487
0.00112382
0.00117495
0.00122573
0.00127522
0.00131637
0.00135088
0.00135442
0.00133781
0.00121889
1.30781e-07
3.67383e-06
3.08353e-05
9.29009e-05
0.000174362
0.000261796
0.000346571
0.000424425
0.00049354
0.000553541
0.000604886
0.00064814
0.000684208
0.00071387
0.000737821
0.000756663
0.000771
0.0007817
0.00078959
0.000794029
0.000795362
0.000793817
0.000789504
0.000782607
0.000773328
0.00076189
0.000748493
0.000733521
0.000717539
0.000701283
0.000685439
0.000670589
0.000657843
0.000647925
0.000641443
0.000638636
0.000639309
0.000643032
0.000649111
0.000656477
0.00066395
0.000670363
0.000674531
0.000675743
0.000673498
0.000667507
0.000657109
0.000642164
0.000622801
0.000599262
0.000571676
0.000539899
0.000503969
0.00046409
0.00042131
0.000375149
0.000329715
0.000287948
0.000254155
0.000230338
0.000214721
0.000210043
0.000210523
0.000218156
0.000227163
0.000233132
0.000238013
0.000242989
0.000249266
0.000257244
0.000262858
0.000267267
0.000286573
0.000323841
0.000393441
0.000485881
0.000598481
0.000719657
0.000844401
0.000963603
0.00108176
0.00119068
0.0012912
0.00138228
0.00146391
0.00153577
0.0015938
0.00164962
0.00169531
0.00173486
0.00176939
0.00179745
0.00181591
0.00183841
0.00185737
0.0018783
0.00189248
0.00190571
0.00191541
0.00192373
0.00192439
0.00193221
0.00193139
0.00193752
0.0019311
0.00193435
0.0019381
0.00194379
0.00193913
0.0019355
0.00191984
0.00191263
0.00189984
0.00188321
0.00186683
0.00185105
0.00183582
0.00181762
0.00180346
0.00178138
0.00176292
0.00174661
0.00173061
0.00171362
0.00170183
0.00167745
0.00163398
0.00160564
0.00157128
0.00154238
0.00151241
0.00148528
0.00145741
0.00143087
0.00140511
0.00137855
0.0013505
0.00132617
0.00130303
0.00128224
0.00126467
0.0012358
0.00122292
0.00121039
0.00119009
0.00116048
0.0011309
0.00110321
0.00107706
0.00105443
0.00103261
0.00101434
0.000999441
0.00098823
0.000980367
0.000975691
0.000975027
0.000972817
0.000964652
0.000946973
0.00091657
0.000879415
0.000842679
0.000810609
0.000790745
0.000794461
0.000819955
0.000857109
0.000903618
0.00095737
0.0010154
0.0010777
0.00114332
0.00120785
0.00127056
0.00132549
0.00137313
0.00139316
0.00139188
0.0013147
5.30526e-07
1.00406e-05
6.62985e-05
0.000159746
0.000264138
0.000365546
0.000457463
0.000537771
0.000606642
0.000664934
0.000713985
0.000755354
0.000789714
0.000817862
0.000840644
0.000858786
0.000872893
0.000883698
0.000891747
0.000896741
0.000898927
0.000898418
0.00089535
0.000889859
0.000882098
0.000872275
0.000860674
0.000847709
0.000833941
0.000820085
0.00080666
0.000794491
0.000784512
0.000777218
0.000772898
0.000771502
0.000772622
0.000775547
0.000779339
0.000782897
0.000785083
0.000784646
0.00078077
0.000772853
0.000762293
0.00074911
0.000730768
0.000707813
0.000680963
0.000650985
0.000617742
0.000581091
0.000541046
0.000498118
0.000453698
0.000405131
0.000359007
0.000318002
0.000285471
0.000260802
0.000251837
0.000253365
0.000261235
0.00027031
0.000278762
0.00028661
0.000294496
0.000303217
0.000310121
0.000318793
0.000328176
0.000355597
0.000416679
0.000505608
0.000624686
0.000758235
0.000901384
0.00104227
0.00118079
0.00131212
0.00143702
0.00155227
0.00165816
0.00175335
0.00183781
0.00191363
0.00197877
0.00203749
0.00208777
0.00213128
0.00216883
0.00220017
0.0022262
0.00225033
0.00227108
0.00229015
0.00230523
0.00231796
0.00232788
0.00233573
0.00233973
0.00234467
0.00234637
0.00234892
0.00234798
0.00234904
0.00234942
0.00234775
0.00234212
0.00233407
0.0023228
0.00231174
0.00229705
0.00227975
0.00226205
0.00224328
0.00222369
0.00220288
0.00218231
0.00215946
0.00213691
0.00211414
0.00209007
0.00206448
0.00203771
0.00200498
0.00196634
0.00193041
0.00189324
0.00185705
0.00182055
0.0017843
0.00174743
0.00171048
0.00167306
0.00162214
0.00156983
0.00151829
0.00146704
0.00141672
0.00136797
0.0013206
0.00127454
0.00123004
0.00118657
0.00114425
0.00110274
0.00106257
0.00102319
0.000985645
0.000949092
0.000915526
0.000885351
0.000860093
0.000841149
0.000828333
0.000820015
0.000814941
0.000804805
0.000790835
0.000766471
0.000738714
0.000710534
0.000689905
0.000688201
0.000703486
0.000730047
0.000767564
0.000815834
0.000873733
0.000939664
0.00101143
0.00108681
0.00116478
0.00124182
0.00130924
0.0013652
0.00139292
0.00140178
0.00135758
1.21395e-06
2.32707e-05
0.000109994
0.000226714
0.00034552
0.000454816
0.000550387
0.000631287
0.000699038
0.000755373
0.000801577
0.000839214
0.000869602
0.000894226
0.000914177
0.000930266
0.000943061
0.000953099
0.00096053
0.000965537
0.000968248
0.000968756
0.000967102
0.000963353
0.000957624
0.000950104
0.000941071
0.000930911
0.000920118
0.000909267
0.000898967
0.000889827
0.000882352
0.000876847
0.000873356
0.000871633
0.000871165
0.000871216
0.000870905
0.000869261
0.000865126
0.000857467
0.000844381
0.000827664
0.000806414
0.000777384
0.000745373
0.000710639
0.000673972
0.00063635
0.000598644
0.000561529
0.000522956
0.000480899
0.000439424
0.000395568
0.000356617
0.000327039
0.000304619
0.000296082
0.000296435
0.000302154
0.000310394
0.000319693
0.00032911
0.000338701
0.000347337
0.000353964
0.000367027
0.000388379
0.000429898
0.000505846
0.000613432
0.000748702
0.000900114
0.00105511
0.0012087
0.00135623
0.00149832
0.00163239
0.00175652
0.00187168
0.00197713
0.00207621
0.00216585
0.00224367
0.0023128
0.00237444
0.00242846
0.00247567
0.0025168
0.0025522
0.00258261
0.00260938
0.00263263
0.00265285
0.00266957
0.00268359
0.00269478
0.00270347
0.00270977
0.00271495
0.0027184
0.00272084
0.00272142
0.00272167
0.00272086
0.0027178
0.00271099
0.00270151
0.00269009
0.00267716
0.00266166
0.00264402
0.00262506
0.00260472
0.00258316
0.00256058
0.00253685
0.0025115
0.00248532
0.00245811
0.00242924
0.00239864
0.00236549
0.00231826
0.00226377
0.00220951
0.00215453
0.00209994
0.00204456
0.00198846
0.00193128
0.00187314
0.0018144
0.00175536
0.00169627
0.00163745
0.00157903
0.00152148
0.00146561
0.00141048
0.00135738
0.00130552
0.00125546
0.00120665
0.00115893
0.00111218
0.00106539
0.00102002
0.000975072
0.000931874
0.000890794
0.000853293
0.00081963
0.000791399
0.000768416
0.000750607
0.000734232
0.000715964
0.000684385
0.00065131
0.000626673
0.000617111
0.000622633
0.000638905
0.000665125
0.000701945
0.000749577
0.000808094
0.000876998
0.000954693
0.0010393
0.0011271
0.001214
0.00129453
0.00136281
0.0014054
0.00143025
0.00141083
1.92506e-06
4.1337e-05
0.000154338
0.000289629
0.000419025
0.000532433
0.000628553
0.000708575
0.000773573
0.000825241
0.000866211
0.000898715
0.000924633
0.000945458
0.00096245
0.000976626
0.000987935
0.000996835
0.00100357
0.00100829
0.00101107
0.00101198
0.00101104
0.00100832
0.00100394
0.000998074
0.00099099
0.000983042
0.000974664
0.000966336
0.000958541
0.000951704
0.000946122
0.000941898
0.000938912
0.000936809
0.000935027
0.000932852
0.00092947
0.000924024
0.000914677
0.000892188
0.000857767
0.000822405
0.000785432
0.000746499
0.000705862
0.000664406
0.000623434
0.000584155
0.00054756
0.000514718
0.000486729
0.000458169
0.00042262
0.000391695
0.000367977
0.000348293
0.00033857
0.000336968
0.000340434
0.000347166
0.000355826
0.000365549
0.000374899
0.000383183
0.000394638
0.000415937
0.00044692
0.000507445
0.000594742
0.000716093
0.00085919
0.00101828
0.00118009
0.00133814
0.00149167
0.00163772
0.00177476
0.0019048
0.00202769
0.00214599
0.00225337
0.00235241
0.00244182
0.00252235
0.00259468
0.00265941
0.00271684
0.00276749
0.00281194
0.00285066
0.00288427
0.00291353
0.0029389
0.00296073
0.00297911
0.00299451
0.00300704
0.00301694
0.00302461
0.0030305
0.00303469
0.0030373
0.00303825
0.00303799
0.00303643
0.00303291
0.00302636
0.00301727
0.00300562
0.00299259
0.00297734
0.00295996
0.0029407
0.00291987
0.00289762
0.00287415
0.00284924
0.00282276
0.00277795
0.00272728
0.00267517
0.00262188
0.00256787
0.00251323
0.00245805
0.00240228
0.00234604
0.00228996
0.00223354
0.00217666
0.00211891
0.00206065
0.00200196
0.00194297
0.00188364
0.00182394
0.0017641
0.00170441
0.00164513
0.00158637
0.00152861
0.00147182
0.00141624
0.00136193
0.00130929
0.00125784
0.00120703
0.00115691
0.00110617
0.00105573
0.00100572
0.000956895
0.000910152
0.000866639
0.000825214
0.000784152
0.00073983
0.00068837
0.000637558
0.000597856
0.000578263
0.000573616
0.000581125
0.000599123
0.000626678
0.000663505
0.000709997
0.000767829
0.000837726
0.000918676
0.00100901
0.00110521
0.00120302
0.00129524
0.00137705
0.00143625
0.00147885
0.00148219
2.48102e-06
5.69806e-05
0.000186309
0.000335215
0.000474158
0.000593408
0.000691086
0.000768381
0.0008285
0.00087474
0.000910215
0.000937608
0.000959016
0.00097616
0.000990597
0.00100305
0.00101289
0.0010207
0.0010267
0.00103098
0.00103361
0.00103461
0.00103405
0.001032
0.00102858
0.00102397
0.00101843
0.00101228
0.0010059
0.000999672
0.000993965
0.000989045
0.000985037
0.000981889
0.000979352
0.000976992
0.000974216
0.00097033
0.000964597
0.000956325
0.000943737
0.000923786
0.000900075
0.00086592
0.000823581
0.000780435
0.000736297
0.000692206
0.000649517
0.000609825
0.00057434
0.000531837
0.000493744
0.000460725
0.000433654
0.000413144
0.000395533
0.00038314
0.000378555
0.000378959
0.00038312
0.00039016
0.000398511
0.000407371
0.000419954
0.000438447
0.000472004
0.000515736
0.000587888
0.000687982
0.000812989
0.000958134
0.00111406
0.00127534
0.00143397
0.00158575
0.00173192
0.00187151
0.00200455
0.00213378
0.00225916
0.00237489
0.00248216
0.00258133
0.00267214
0.00275486
0.00282981
0.00289732
0.00295771
0.00301136
0.00305874
0.00310029
0.00313657
0.00316815
0.00319556
0.00321918
0.00323926
0.00325617
0.0032701
0.0032813
0.00329011
0.00329684
0.00330165
0.00330458
0.00330571
0.00330522
0.00330312
0.00329919
0.00329283
0.00328368
0.00327224
0.00325921
0.00324419
0.00322713
0.0032081
0.00318604
0.00314643
0.00310437
0.00306031
0.00301467
0.00296757
0.00291922
0.00287011
0.00282045
0.00277073
0.00272036
0.00266911
0.00261666
0.00256338
0.00250979
0.00245568
0.00240079
0.00234477
0.00228759
0.00222948
0.00217067
0.00211112
0.00205063
0.00198932
0.00192743
0.00186525
0.00180304
0.0017413
0.0016803
0.00162024
0.00156134
0.00150406
0.00144883
0.00139405
0.00133943
0.00128375
0.00122646
0.00116676
0.00110463
0.00104039
0.000974514
0.000904053
0.000825549
0.00073795
0.000651879
0.000592756
0.000557409
0.000541347
0.000539862
0.000550545
0.00057158
0.000601969
0.000641248
0.000689487
0.000747679
0.000818855
0.000903015
0.000998741
0.0011026
0.00120991
0.00131389
0.00140895
0.00148533
0.00154579
0.00156937
2.91406e-06
6.70203e-05
0.000213234
0.000375029
0.000521887
0.000643267
0.000739172
0.000812549
0.000867366
0.000907707
0.000937362
0.000959516
0.000976516
0.000990494
0.00100255
0.00101324
0.0010217
0.00102858
0.00103395
0.00103783
0.00104023
0.00104117
0.00104076
0.00103911
0.00103636
0.00103268
0.00102833
0.0010236
0.0010188
0.0010143
0.00101039
0.00100725
0.00100486
0.00100303
0.00100136
0.000999318
0.000996204
0.000991206
0.000983374
0.000971778
0.000957511
0.000936877
0.000913097
0.000885378
0.000853551
0.000817743
0.000778775
0.000737261
0.000695076
0.000649797
0.000606881
0.000567104
0.000532203
0.000503203
0.000480339
0.000461686
0.000447002
0.000433863
0.00043108
0.000430968
0.000434796
0.000441363
0.000452814
0.000474625
0.000506936
0.000548626
0.000603068
0.00068373
0.000788368
0.000909129
0.00104485
0.00119251
0.00134457
0.00149649
0.0016453
0.00178943
0.00192874
0.00206303
0.00219455
0.00232386
0.00244563
0.00256015
0.00266726
0.00276691
0.00285899
0.00294353
0.00302063
0.00309047
0.00315332
0.0032095
0.00325938
0.00330332
0.00334182
0.00337546
0.0034048
0.00343023
0.00345205
0.00347054
0.00348595
0.00349847
0.0035083
0.00351595
0.00352145
0.00352485
0.00352624
0.00352576
0.00352345
0.00351929
0.00351306
0.00350422
0.00348975
0.0034678
0.00344283
0.00341449
0.0033831
0.00334908
0.00331285
0.00327462
0.00323526
0.00319471
0.00315297
0.00311006
0.00306601
0.00302081
0.0029745
0.00292703
0.00287827
0.00282806
0.00277666
0.00272444
0.00267132
0.00261702
0.00256131
0.00250414
0.00244572
0.00238624
0.00232566
0.00226373
0.00220046
0.00213614
0.00207104
0.00200553
0.00194008
0.00187507
0.00181076
0.00174724
0.00168456
0.00162316
0.00156039
0.00149529
0.00142562
0.00134991
0.00126741
0.0011793
0.00108677
0.000992199
0.000892768
0.000789082
0.000689659
0.000604449
0.000550697
0.000520275
0.000509332
0.000512624
0.000527465
0.000552239
0.000586029
0.000628512
0.000679823
0.000740862
0.000814203
0.000902604
0.00100441
0.00111613
0.00123308
0.00134871
0.00145688
0.00154861
0.001627
0.00166761
3.22492e-06
7.49773e-05
0.000233923
0.000406585
0.000559038
0.000681665
0.000775515
0.000844599
0.00089372
0.000927471
0.000950509
0.000966969
0.000979618
0.00099104
0.00100025
0.00100835
0.0010157
0.00102209
0.00102733
0.00103126
0.00103373
0.00103459
0.00103415
0.00103279
0.00103063
0.00102781
0.00102447
0.00102081
0.00101691
0.00101308
0.00101
0.00100824
0.00100751
0.0010077
0.00100817
0.00100819
0.00100721
0.00100467
0.00100006
0.000993027
0.000983036
0.00096942
0.000947579
0.000924747
0.000898843
0.000869442
0.000836666
0.000802491
0.000767443
0.000731642
0.000697495
0.000663133
0.000631785
0.000604802
0.000582213
0.000563363
0.000546795
0.000533073
0.000525606
0.000524189
0.000529958
0.000544071
0.000567482
0.000607386
0.000655791
0.000716071
0.000796015
0.000891259
0.001001
0.00112172
0.00125316
0.00139227
0.00153413
0.00167572
0.00181519
0.00195156
0.00208411
0.00221416
0.00234348
0.00246915
0.00258865
0.00270204
0.00280897
0.00290916
0.00300237
0.00308846
0.00316736
0.00323907
0.00330391
0.00336218
0.00341419
0.00343992
0.00346296
0.00348541
0.00350752
0.00352906
0.00354975
0.00356928
0.00358732
0.00360354
0.0036176
0.00362933
0.00363864
0.00364537
0.00364924
0.00365
0.00364753
0.0036418
0.00363283
0.0036205
0.00360529
0.00358749
0.003567
0.00354344
0.00351748
0.00348878
0.00345777
0.00342449
0.00338921
0.00335212
0.00331342
0.00327317
0.00323136
0.003188
0.00314312
0.00309678
0.00304896
0.00299964
0.00294898
0.00289719
0.00284421
0.00278986
0.00273396
0.00267645
0.00261746
0.00255717
0.00249553
0.00243238
0.00236768
0.00230156
0.00223422
0.00216596
0.00209722
0.0020283
0.00195945
0.00189031
0.00182028
0.00174747
0.00166977
0.00158546
0.00149317
0.00139366
0.00128882
0.00118253
0.00107376
0.000965282
0.000852686
0.000740916
0.000635103
0.000555598
0.000508471
0.000486822
0.000483002
0.000492077
0.000511637
0.000540489
0.000577978
0.000624004
0.000678844
0.000743455
0.000820315
0.000913924
0.00102249
0.00114249
0.00126922