/*--------------------------------*- C++ -*----------------------------------*\
| =========                 |                                                 |
| \\      /  F ield         | OpenFOAM: The Open Source CFD Toolbox           |
|  \\    /   O peration     | Version:  4.x                                   |
|   \\  /    A nd           | Web:      www.OpenFOAM.org                      |
|    \\/     M anipulation  |                                                 |
\*---------------------------------------------------------------------------*/
FoamFile
{
    version     2.0;
    format      ascii;
    class       volScalarField;
    location    "200";
    object      omega;
}
// * * * * * * * * * * * * * * * * * * * * * * * * * * * * * * * * * * * * * //

dimensions      [0 0 -1 0 0 0 0];

internalField   nonuniform List<scalar> 
12225
(
38712.1
41494.4
43128.2
43944.3
44184.2
44131.2
43973.8
43696.5
43398.1
43110.5
42842.2
42593.9
42378.5
42173.3
42017.6
41845.5
41757.8
41606.6
1904.37
6538.62
9480.24
11498.3
12876.6
13790.5
14407.7
14814.3
15079.5
15317.3
15542.1
15788
16006.2
16230.1
16407.4
16577.4
16680.3
16719
370.451
1158.04
1743.9
2292.71
2738.15
3159.89
3468.77
3777.73
4007.63
4321.47
4553.77
4853.13
5057.89
5326.05
5491.32
5725.66
5844.97
6039
385.787
562.155
675.309
831.171
959.093
1102.08
1209.4
1335.24
1423.14
1542.45
1622.74
1734.47
1803.24
1905.17
1960.59
2051.69
2092.62
2174.58
420.617
459.384
483.253
529.045
569.181
621.036
660.924
711.269
746.855
793.763
825.433
869.341
896.8
937.436
960.117
997.193
1014.54
1048.62
436.012
439.196
443.12
454.279
464.768
482.414
496.48
516.327
531.058
550.955
565.04
584.311
597.05
615.29
626.075
643.118
651.457
667.43
438.407
437.281
436.454
437.109
438.565
441.707
445.126
451.292
456.008
463.34
468.744
476.606
482.046
489.922
494.827
502.42
506.422
513.674
438.856
437.106
435.306
434.146
433.155
433.056
433.209
433.941
434.995
437.111
438.815
441.767
443.846
447.159
449.248
452.649
454.451
457.923
438.951
437.007
435.009
433.315
431.694
430.475
429.399
428.644
428.026
427.73
427.729
427.965
428.316
429.104
429.63
430.664
431.251
432.455
438.976
436.912
434.876
433.006
431.2
429.606
428.094
426.77
425.522
424.476
423.485
422.749
421.984
421.518
420.945
420.713
420.264
420.238
438.989
436.848
434.789
432.855
430.991
429.278
427.627
426.116
424.649
423.335
422.044
420.916
419.792
418.83
417.85
417.027
416.167
415.468
438.995
436.812
434.732
432.765
430.879
429.116
427.423
425.843
424.316
422.899
421.525
420.257
419.023
417.885
416.779
415.754
414.758
413.838
438.997
436.791
434.696
432.71
430.812
429.024
427.314
425.702
424.155
422.699
421.299
419.982
418.713
417.519
416.369
415.284
414.239
413.256
438.998
436.78
434.674
432.676
430.772
428.969
427.25
425.622
424.065
422.592
421.179
419.844
418.56
417.347
416.18
415.076
414.011
413.009
439
436.774
434.663
432.657
430.748
428.937
427.212
425.575
424.012
422.529
421.111
419.765
418.475
417.252
416.077
414.965
413.893
412.881
439.001
436.772
434.656
432.646
430.734
428.918
427.19
425.547
423.981
422.492
421.07
419.718
418.425
417.197
416.018
414.901
413.825
412.809
439
436.769
434.651
432.638
430.725
428.907
427.176
425.53
423.962
422.47
421.046
419.69
418.395
417.163
415.984
414.863
413.785
412.767
439
436.769
434.65
432.637
430.724
428.905
427.174
425.527
423.958
422.464
421.04
419.683
418.388
417.154
415.975
414.852
413.775
412.754
439.001
436.771
434.653
432.641
430.729
428.91
427.18
425.533
423.965
422.471
421.047
419.691
418.395
417.162
415.982
414.861
413.783
412.764
439.001
436.772
434.655
432.643
430.732
428.914
427.184
425.538
423.971
422.479
421.056
419.701
418.407
417.177
415.997
414.879
413.801
412.785
439
436.773
434.661
432.652
430.743
428.927
427.202
425.559
423.997
422.507
421.09
419.739
418.451
417.226
416.053
414.943
413.87
412.866
439
436.777
434.675
432.669
430.768
428.958
427.245
425.611
424.066
422.591
421.198
419.869
418.612
417.416
416.28
415.208
414.178
413.219
439.007
436.783
434.707
432.71
430.835
429.053
427.399
425.828
424.381
423.009
421.753
420.563
419.481
418.455
417.53
416.651
415.863
415.101
439.029
436.755
434.821
432.916
431.222
429.705
428.409
427.254
426.37
425.599
425.084
424.653
424.427
424.278
424.281
424.395
424.571
424.678
438.925
436.551
435.833
434.797
434.606
434.9
435.36
436.409
438.478
440.521
443.198
445.644
448.64
451.265
454.421
457.053
460.262
462.766
437.088
437.586
443.99
450.025
455.886
463.585
473.887
484.063
495.819
506.496
518.274
528.543
539.817
549.319
559.896
568.464
578.307
585.872
426.665
458.052
496.855
527.704
566.861
605.941
647.764
685.363
724.477
758.079
793.346
822.493
853.777
878.594
906.193
927.099
951.551
969.107
420.954
636.945
818.259
988.463
1166.98
1325.51
1473.68
1599.05
1719.45
1818.31
1916.6
1993.07
2072.91
2131.04
2196.47
2240.73
2295.67
2330.45
986.214
2464.64
3450.01
4392.73
5177.38
5798.11
6289.93
6674.83
6990.06
7237.89
7445.33
7600.24
7740.54
7836.74
7939.79
8003.37
8094.75
8147.48
20974.1
22178.5
23100.7
23779.6
24251.1
24574.4
24774.4
24900.9
24975
25008.7
25004.4
24982.2
24943.8
24890.3
24822.7
24755.3
24690.1
24627.6
11463.6
2497.92
2506.55
2525.33
2567.2
2627.15
2693.02
2758.6
2822.29
2882.16
2936.42
2985.02
3027.65
3065.02
3096.95
3124.26
3147.8
3160.07
3166.77
3172.77
3184.82
3177.57
3176.28
3186.72
3169.57
3169.55
3163.87
3151.51
3134.7
3112
3099.3
3078.88
3053.09
3030.23
3007.41
2987.75
2967.27
2948.35
2932.88
2921.72
2916.52
2915.18
2927.19
2937.49
2956.36
2977.28
2997.54
3017.59
3030.94
3043.28
3047.34
3038
3033.51
3013.92
2987.3
2951.22
2910.18
2864.18
2817.6
2773.58
2737.18
2712.03
2698.8
2697.92
2707.47
2722.16
2748.35
2779.04
2812.44
2844.82
2863.53
2874.3
2881.37
2900.88
2943.99
3076.42
3415.55
3850.31
4294.62
4713.65
5089.44
5396.69
5648.17
5846.18
6010.65
6155.99
6277.59
6378.63
6449.27
6512.96
6567.68
6605.33
6678.32
6735.86
6798.53
6840.57
6877.8
6873.24
6918.41
6941.09
7027.89
7042.7
7076.11
7098.31
7114.6
7114.16
7134.51
7156.47
7178.74
7225.7
7229.27
7241.74
7239.71
7270.84
7234.16
7212.11
7236.67
7211.47
7224.58
7255.41
7234.2
7214.91
7220.08
7233.37
7256
7220.86
7241.56
7293.53
7279.43
7278.23
7327.98
7304.09
7371.96
7374.12
7394.09
7385.26
7413.13
7492.95
7467.46
7497.52
7534.86
7577.82
7688.92
7698.41
7717.18
7765.12
7881.47
7882.49
7935.07
8059.56
8064.23
8120.68
8189.26
8247.46
8320.33
8416.1
8438.16
8520.68
8593.66
8675.23
8740.87
8810.68
8893.29
8915.12
8946.12
8976.58
9000.19
9027.33
9011.11
8901.25
8858.32
8800.36
8733.65
8649.97
8544.55
8422.54
8312.62
8121.58
8025.68
7657.16
11464.2
2181.31
1203.02
1049.67
976.497
914.196
860.573
817.104
784.146
762.667
750.729
746.228
747.667
753.116
762.294
773.859
786.868
800.671
814.807
829.318
844.443
858.995
873.991
888.273
908.444
935.679
966.618
998.608
1029.28
1057.32
1082.04
1103.33
1107.71
1109.72
1113.43
1089.57
1084.54
1065.98
1040.87
1011.38
980.841
952.229
929.944
916.008
910.842
919.399
928.634
939.789
965.168
981.269
1002.94
1025.18
1049.6
1083.14
1109.02
1157.95
1178.64
1197.41
1206.79
1160.39
1134.56
929.562
818.38
717.894
697.246
765.509
825.707
966.269
1109.57
1319.16
1626.62
1958.45
2291.61
2627.54
2958.35
3237.66
3476.11
3681.93
3734.9
3830.34
3693.46
3502.26
3344.22
3169.49
3041.03
2934.49
2840.93
2769.86
2705.79
2658.92
2618.55
2588.63
2566.37
2547.85
2533.9
2519.01
2506.8
2492.28
2480.27
2468.89
2460.91
2450.94
2442.65
2433.99
2425.73
2417.91
2409.58
2401.66
2393.37
2388.69
2380.83
2376.26
2371.83
2368.95
2366.91
2370.01
2375.27
2384.82
2387.46
2394.32
2399.08
2403.66
2407.38
2409.51
2413.12
2414.76
2416.85
2409.52
2392.73
2408.13
2431.72
2450.8
2433.29
2450.97
2473.69
2504.51
2527.27
2529.16
2543.53
2538.58
2561.38
2613.58
2622.87
2654.69
2657.53
2668.67
2669.04
2680.84
2681.82
2702.55
2705.62
2723.28
2731.32
2741.09
2754.95
2766.82
2780.96
2800.94
2816.98
2836.99
2855.08
2874.22
2891.64
2910.9
2933.45
2957.29
2966.36
2983.58
2967.47
2912.54
2839.5
2784.76
2742.23
2700.16
2663.13
2615.02
2576.29
2564.3
2563.17
2661.19
11464.4
2573.68
1675.95
1294.13
1040.07
881.197
758.16
669.669
609.231
567.695
539.06
519.892
507.744
500.933
498.526
499.292
501.632
505.922
511.687
518.691
526.777
535.759
545.572
556.122
568.203
582.111
597.67
614.506
632.024
649.583
666.496
682.179
694.43
703.805
710.61
712.434
712.517
709.462
701.3
691.1
679.711
668.285
658.083
649.961
644.414
641.884
641.297
642.348
645.994
649.152
654.725
661.255
669.341
680.337
691.881
709.378
724.076
736.245
741.686
727.97
709.457
668.186
669.817
713.858
785.958
884.51
1016.57
1202.77
1412.1
1648.75
1940.48
2246.56
2508.37
2700.07
2855.68
2922.3
3009.16
2851.89
2575.13
2411.16
2243.4
2116.24
2019.75
1938.25
1881.06
1835.78
1800.41
1773.66
1751.37
1734.32
1720.02
1709.07
1700.63
1693.24
1687.63
1681.39
1676.15
1670.29
1664.9
1658.64
1652.37
1646.92
1647.21
1640.09
1639.7
1642.13
1637.27
1640.41
1635.1
1638.33
1635.14
1637.6
1647.6
1648
1661.62
1663.67
1665.65
1665.44
1657.14
1671.45
1662.07
1663.65
1667.26
1671.8
1687.84
1683.07
1690.06
1697.17
1705.72
1729.56
1724.86
1732.87
1741.02
1751.16
1779.26
1782.6
1804.61
1799.8
1827.86
1833.45
1848.41
1862.71
1871.05
1873.38
1886.79
1883.06
1885.85
1893.15
1890.33
1890.52
1889.86
1891.11
1896.03
1896.43
1900.62
1905.9
1913.77
1923.46
1934.05
1946.49
1957.04
1975.96
1987.65
1988.84
1997.03
1997.01
1989.31
1966.49
1918.01
1855.56
1801.24
1758.63
1722.77
1687.91
1656.01
1616.29
1587.39
1580.65
1568.22
1614.46
11465.7
3504.26
1956.42
1342.32
1021.7
819.534
690.628
606.055
548.974
509.7
482.826
464.435
451.928
443.74
438.906
436.783
436.87
437.899
440.187
443.894
448.81
454.822
461.843
469.949
479.175
489.543
500.998
513.406
526.511
539.991
553.425
566.331
578.02
588.068
596.17
601.973
605.521
606.855
606.068
603.203
599.107
594.538
589.865
585.375
581.25
577.573
574.321
571.455
569.042
566.924
565.581
565.062
565.984
569.145
574.831
584.519
596.675
611.187
628.861
650.138
682.902
732.432
805.212
918.643
1037.38
1173.88
1333.97
1521.87
1732.46
1950.94
2149.9
2306.09
2421.7
2503.37
2477.2
2346.8
2160.31
1980.08
1824.59
1728.28
1639.91
1578.21
1531.19
1495.32
1470.06
1451.06
1437.05
1425.88
1417.12
1409.7
1402.78
1397.72
1396.61
1395.62
1397.73
1393.36
1394.92
1389.34
1388.82
1388.76
1390.12
1394.51
1390.32
1390.74
1392.15
1393.76
1394.56
1396.91
1404.34
1399.74
1404.26
1407.97
1413.65
1427.18
1432.12
1436.05
1434.62
1446.09
1442.56
1448.56
1461.55
1460.92
1457.91
1462.14
1469.28
1476.52
1498.52
1500.5
1522.28
1525.4
1547.94
1555.45
1568.91
1573.62
1574.9
1585
1612.63
1616.67
1636.05
1645.21
1659.85
1670.45
1686.75
1692.39
1700.32
1701.68
1702.49
1708.61
1717.62
1713.69
1711.05
1710.09
1703.76
1698.05
1694.43
1692.59
1692.76
1694.73
1699.15
1705.56
1713.91
1718.58
1728.84
1723.26
1706.93
1693.53
1657.88
1609.59
1552.19
1496.81
1447.97
1405.61
1367.57
1332.17
1298.81
1264.54
1235.4
1224.34
1216.8
1231.51
11483.2
3907.56
1965.81
1236.05
895.838
717.396
614.121
549.561
507.099
478.195
458.035
443.928
434.06
427.338
423.057
420.762
420.1
420.648
422.032
424.668
428.442
433.307
439.277
446.331
454.429
463.538
473.594
484.495
496.066
508.078
520.255
532.297
543.757
554.245
563.471
571.214
577.376
581.969
585.018
586.719
587.269
586.829
585.611
583.582
580.664
576.985
572.881
568.442
563.728
558.855
554.178
550.48
548.651
549.817
554.729
567.228
586.573
614.631
651.805
703.722
778.175
880.762
1004.27
1120.97
1245.83
1391.02
1547.01
1711.19
1868.12
1994.43
2098.23
2176.84
2152.42
2080.94
1924.43
1774.52
1637.79
1533.8
1452.58
1397.72
1352.08
1320.55
1297.59
1281.3
1269.85
1262.43
1261.44
1257.53
1256.95
1256.95
1257.22
1259
1264.86
1265.56
1266.83
1265.17
1266.55
1267.35
1269.3
1271.15
1277.14
1277.6
1283.13
1283.4
1291.84
1293.42
1293.98
1291.53
1295.64
1298.1
1307.97
1311.77
1318.1
1326.33
1333.98
1340.67
1346.38
1353.72
1357.87
1367.46
1374.06
1378.58
1382.24
1385.82
1384.69
1392.78
1416.29
1427.31
1443.96
1456.47
1470.37
1482.21
1495.05
1506.89
1518.66
1532.1
1548.78
1563.02
1577.89
1590.76
1602.34
1629.89
1638.9
1649.56
1671.55
1675.71
1690.9
1705.5
1722.54
1719.09
1716.23
1707.74
1695.87
1681.39
1665.44
1648.45
1635.82
1623.29
1617.22
1612
1610.18
1613.95
1613.05
1603.7
1573.09
1533.79
1480.66
1424.43
1370.9
1321.4
1275.69
1233.72
1194.36
1158.24
1123.24
1093.06
1062.19
1037.58
1041.52
1040.89
11543.5
3773.86
1689.61
1045.57
779.788
644.592
566.708
518.14
486.085
464.2
448.854
437.786
430.001
424.77
421.535
419.923
419.678
420.515
422.24
425.063
428.922
433.821
439.749
446.697
454.652
463.594
473.472
484.201
495.638
507.578
519.905
532.335
544.425
555.926
566.588
576.227
584.728
592.048
598.178
603.156
607.015
609.835
611.582
612.02
610.493
606.69
602.618
598.059
592.867
587.017
581.425
577.239
575.782
578.31
585.622
605.514
635.977
681.441
746.391
833.976
936.152
1042.92
1150.63
1265.71
1386.45
1512.45
1637.33
1748.41
1845.35
1900.07
1936.43
1904.22
1788
1663.91
1536.03
1434.67
1351.77
1293.03
1248.2
1216.81
1193.75
1178.85
1169.49
1164.87
1163.75
1164.11
1166.82
1169.22
1172.57
1176.14
1179.71
1183.78
1188.12
1191.25
1194.27
1196.52
1199.35
1202.16
1205.36
1208.59
1213.01
1216.27
1220.49
1223.78
1228.35
1231.46
1234.37
1237.05
1240.75
1244.56
1250.28
1255.26
1261.42
1268.41
1274.99
1281.63
1288.2
1294.98
1301.21
1308.22
1314.64
1320.69
1326.89
1333.28
1339.67
1349.25
1362.66
1374.44
1387.04
1399.24
1411.85
1424.61
1438.18
1452.13
1467
1483.33
1501.2
1519.91
1539.74
1560.48
1581.77
1604.61
1624.26
1643.74
1663.79
1674.82
1712.93
1724.23
1747.34
1755.86
1765.04
1756.86
1742.55
1719.49
1688.8
1653.75
1618.47
1584.12
1555.04
1529.97
1507.22
1495.24
1478.95
1450.83
1403.41
1348.93
1298.85
1253.69
1212.49
1174.81
1138.47
1103.92
1070.3
1039.04
1007.96
982.001
954.76
930.907
928.477
922.012
11646.5
3259.85
1438.71
931.43
719.899
609.961
545.662
505.496
478.913
460.69
448.184
439.65
434.038
430.505
428.554
427.884
428.324
429.715
432.065
435.356
439.581
444.746
450.875
457.989
466.099
475.201
485.271
496.258
508.078
520.61
533.697
547.139
560.7
574.146
587.238
599.761
611.512
622.308
631.978
640.358
647.292
652.741
656.748
659.276
659.578
656.491
653.985
652.768
651.621
648.226
645.864
646.146
648.68
656.727
671.705
703.727
749.934
809.45
882.073
965.177
1055.13
1149.28
1246.98
1346.88
1447.03
1541.96
1629.9
1707.6
1737.31
1731.57
1683.6
1587.31
1483.11
1383.14
1298.64
1234.35
1185.89
1151.56
1126.89
1110.79
1102.02
1098.07
1097.93
1098.72
1101.4
1106.61
1112.45
1118.22
1124.05
1129.65
1134.92
1139.98
1144.77
1148.99
1152.84
1156.34
1159.89
1163.34
1166.94
1170.63
1174.55
1178.23
1181.97
1185.55
1189.37
1192.84
1196.21
1199.67
1203.6
1207.86
1212.82
1217.94
1223.57
1229.56
1235.51
1241.53
1247.57
1253.54
1259.43
1265.53
1271.57
1277.61
1283.92
1290.5
1297.74
1306.51
1316.43
1326.24
1336.35
1346.62
1357.32
1368.51
1380.42
1392.97
1406.53
1421.37
1437.5
1454.88
1473.5
1493.03
1513.45
1534.8
1556.44
1579.48
1603.63
1627.42
1653.72
1667.67
1703.48
1710.8
1725.19
1724.27
1715.19
1693.77
1657.57
1604.65
1555.91
1503.48
1454.39
1409.57
1378.71
1350.16
1313.97
1267.83
1221.12
1177.4
1137.48
1101.76
1069.02
1039.75
1013.29
988.319
963.137
939.322
915.357
895.044
873.164
857.054
837.751
835.197
11754.1
2748.93
1277.13
861.662
684.343
591.807
537.122
502.285
479.58
464.798
455.08
448.764
444.812
442.575
441.596
441.545
442.567
444.554
447.474
451.326
456.121
461.882
468.637
476.417
485.243
495.134
506.085
518.073
531.04
544.895
559.502
574.686
590.227
605.881
621.374
636.433
650.777
664.138
676.261
686.936
696.025
703.5
709.439
714.071
716.647
716.621
714.089
713.889
714.346
712.801
716.283
723.215
734.692
752.547
778.369
814.487
860.342
915.5
979.6
1051.06
1127.37
1206.93
1287.59
1366.29
1442.98
1517
1568.87
1578.51
1568.85
1506.88
1435.59
1350.4
1274.23
1206.04
1152.4
1113.37
1085.14
1066.62
1056.27
1051
1049.56
1049.57
1053.22
1058.43
1065.2
1072.76
1080.54
1088.16
1095.5
1102.42
1108.83
1114.77
1120.27
1125.29
1129.89
1134.15
1138.25
1142.2
1146.12
1150.06
1154
1157.86
1161.65
1165.41
1169.19
1172.89
1176.52
1180.18
1184.02
1188.07
1192.48
1197.13
1202.05
1207.19
1212.39
1217.62
1222.84
1227.96
1233.03
1238.15
1243.26
1248.39
1253.64
1259.04
1264.82
1271.31
1278.21
1285.19
1292.31
1299.58
1307.12
1315.07
1323.48
1332.4
1342
1352.46
1363.77
1375.96
1389.03
1402.78
1417.36
1432.82
1449.29
1467.69
1488.81
1513.45
1533.16
1546.21
1564.06
1570.17
1577.32
1576.55
1568.95
1551.78
1522.18
1477.41
1429.91
1379.15
1329.03
1273.57
1232.8
1194.99
1156.35
1116.94
1077.78
1041.21
1008.13
980.22
953.452
929.706
908.762
890.196
872.169
854.974
837.655
823.088
806.914
796.173
779.426
775.46
11837.2
2526.42
1231.19
844.479
676.84
588.963
538.093
507.248
487.947
475.755
468.097
463.402
460.73
459.45
459.038
459.341
460.791
463.223
466.624
471.008
476.4
482.83
490.331
498.938
508.684
519.593
531.673
544.905
559.236
574.569
590.757
607.61
624.887
642.317
659.598
676.425
692.495
707.525
721.239
733.357
743.546
751.827
758.4
763.398
766.849
769.375
771.035
772.06
775.436
781.902
790.578
801.672
816.311
835.848
861.474
894.107
933.856
980.802
1034.51
1093.31
1155.26
1218.13
1282.14
1346.36
1398.92
1434.28
1430.04
1419.12
1373.01
1312.96
1250.92
1191.42
1139.32
1095.95
1063.55
1041.83
1027.43
1019.23
1015.9
1015.01
1015.8
1020.03
1026.35
1033.99
1042.55
1051.53
1060.55
1069.35
1077.75
1085.62
1092.92
1099.66
1105.87
1111.59
1116.84
1121.72
1126.33
1130.72
1135
1139.21
1143.35
1147.41
1151.39
1155.33
1159.25
1163.12
1166.96
1170.79
1174.67
1178.66
1182.81
1187.12
1191.58
1196.15
1200.75
1205.33
1209.84
1214.2
1218.44
1222.58
1226.61
1230.56
1234.45
1238.32
1242.28
1246.49
1250.8
1255.13
1259.46
1263.8
1268.22
1272.79
1277.57
1282.62
1288.02
1293.87
1300.17
1306.98
1314.27
1321.99
1330.22
1338.99
1348.36
1358.69
1370.05
1382.99
1397.66
1406.94
1413.88
1416.43
1417.64
1414.85
1407.52
1393.86
1370.92
1329.52
1289.3
1246.43
1199.88
1149.1
1106.42
1068.05
1031.5
996.084
961.863
932.182
903.565
877.772
855.465
836.315
819.825
805.662
792.858
780.879
769.037
759.376
748.447
741.605
729.752
726.495
11904.4
2479.15
1207.51
835.806
675.05
592.65
545.977
518.283
501.613
491.663
485.867
482.637
481.058
480.378
480.339
480.892
482.604
485.295
489.004
493.787
499.696
506.767
515.021
524.479
535.174
547.133
560.359
574.824
590.45
607.096
624.546
642.551
660.859
679.19
697.276
714.873
731.778
747.882
763.218
777.915
789.485
798.239
805.384
811.184
815.838
819.677
822.887
826.421
829.931
838.504
848.086
859.972
874.262
891.647
913.186
939.675
971.624
1009.19
1051.68
1097.57
1146.81
1199.57
1248.36
1277.47
1289.16
1292.24
1287.13
1255.67
1212.1
1170.15
1129.41
1091.02
1058.72
1033.32
1014.71
1002.32
995.035
991.989
991.325
992.155
996.045
1002.13
1009.84
1018.66
1028.16
1037.97
1047.79
1057.38
1066.58
1075.25
1083.33
1090.84
1097.79
1104.23
1110.16
1115.67
1120.83
1125.72
1130.43
1135.01
1139.51
1143.86
1148.11
1152.3
1156.45
1160.54
1164.59
1168.59
1172.58
1176.58
1180.61
1184.68
1188.79
1192.92
1197.01
1201.02
1204.89
1208.56
1212
1215.24
1218.26
1221.06
1223.66
1226.09
1228.4
1230.68
1232.88
1234.95
1236.95
1238.85
1240.66
1242.45
1244.25
1246.11
1248.07
1250.17
1252.43
1254.88
1257.52
1260.34
1263.35
1266.59
1270.05
1273.85
1277.99
1282.65
1287.55
1290.65
1292.39
1292.57
1291.84
1289.3
1283.99
1274.35
1257.43
1229.02
1193.52
1150.37
1097.31
1043.64
999.077
960.852
926.71
895.986
866.938
840.288
817.078
796.676
778.922
763.667
750.644
739.659
730.144
721.859
713.926
707.763
700.779
696.736
688.924
686.869
11951.4
2477.06
1206.49
837.427
680.741
601.609
557.818
532.778
518.643
511.235
507.786
506.379
505.986
505.669
506.258
507.453
509.257
511.915
515.607
520.484
526.682
534.338
543.362
553.635
565.2
578.097
592.353
607.97
624.967
643.163
662.056
681.036
699.947
718.411
736.349
753.694
770.269
785.909
800.451
813.688
825.298
835.537
844.779
853.213
861.013
868.384
875.587
882.977
890.925
899.543
906.987
917.493
928.998
941.217
955.372
972.51
993.658
1019.47
1049.52
1082.78
1116.36
1146.56
1171.37
1176.59
1180.55
1178.73
1161.63
1139.1
1113.44
1088.21
1062.7
1038.59
1018.04
1001.86
990.124
982.616
978.999
978.04
978.467
980.964
985.913
992.683
1000.86
1010.05
1019.91
1030.12
1040.4
1050.54
1060.39
1069.77
1078.61
1086.88
1094.62
1101.88
1108.56
1114.75
1120.54
1126
1131.22
1136.25
1141.16
1145.87
1150.48
1155
1159.46
1163.84
1168.16
1172.41
1176.58
1180.69
1184.73
1188.7
1192.6
1196.41
1200.1
1203.63
1206.97
1210.07
1212.91
1215.46
1217.72
1219.67
1221.32
1222.69
1223.8
1224.77
1225.52
1225.88
1226.1
1226.11
1225.93
1225.59
1225.12
1224.55
1223.9
1223.19
1222.43
1221.65
1220.91
1220.18
1219.46
1218.75
1218.06
1217.45
1216.96
1216.74
1216.78
1216.57
1216.14
1215.34
1214.16
1211.85
1206.66
1196.36
1178.13
1149.64
1111.98
1064.67
1004.95
950.948
906.634
870.058
839.272
810.574
786.569
765.411
747.292
731.36
717.693
706.078
696.296
688.23
681.532
676.061
671.097
667.536
663.445
661.579
656.813
655.713
11981.5
2474.83
1207.95
842.632
688.844
612.242
570.901
548.356
536.915
531.997
530.138
529.543
529.206
529.332
530.749
533.041
536.193
540.285
545.432
551.752
559.331
568.189
578.203
589.305
601.501
614.762
629.14
644.588
660.998
678.179
695.874
713.828
731.856
749.769
767.433
784.731
801.554
817.814
833.453
848.454
862.859
876.829
890.532
904.075
917.483
930.822
944.171
957.198
969.489
979.952
990.714
1001.39
1010.8
1019.25
1027.07
1035.05
1044.5
1055.98
1069.69
1086.05
1100.14
1112.12
1121.15
1122.9
1121.13
1116.79
1106.46
1092.44
1075.9
1058.05
1039.93
1022.92
1008.11
996.104
987.133
981.233
978.278
977.425
978.048
980.833
985.561
991.952
999.72
1008.57
1018.21
1028.34
1038.71
1049.15
1059.45
1069.44
1078.96
1087.97
1096.44
1104.35
1111.68
1118.5
1124.91
1130.96
1136.73
1142.28
1147.65
1152.87
1157.97
1162.96
1167.86
1172.67
1177.38
1181.99
1186.47
1190.82
1195.02
1199.07
1202.95
1206.64
1210.13
1213.38
1216.39
1219.11
1221.55
1223.64
1225.35
1226.66
1227.54
1228.02
1228.13
1227.99
1227.51
1226.75
1225.71
1224.4
1222.84
1221.05
1219.05
1216.87
1214.52
1211.87
1209.04
1206.08
1203.03
1199.89
1196.66
1193.31
1189.87
1186.39
1183.02
1180.01
1177.52
1175.41
1173.63
1171.83
1169.55
1165.49
1157.33
1142.68
1119.28
1085.72
1043.27
990.546
925.068
870.397
826.378
792.278
763.164
739.365
720.69
704.196
690.694
678.761
668.811
660.439
653.581
648.16
643.965
640.814
638.305
636.775
634.921
634.856
632.325
631.788
11994.2
2474.74
1211.28
848.443
696.951
622.414
583.176
562.997
553.711
550.175
548.78
548.324
548.41
549.967
552.541
556.032
560.438
565.814
572.252
579.839
588.627
598.587
609.602
621.517
634.169
647.596
661.854
676.93
692.801
709.383
726.554
744.19
762.173
780.397
798.775
817.245
835.763
854.312
872.899
891.56
910.361
929.391
948.722
968.355
988.235
1008.35
1028.12
1046.68
1062.68
1079.78
1096.46
1111.96
1125.83
1138.07
1148.26
1154.04
1157.64
1159.33
1157
1157.33
1158.24
1159.04
1157.54
1152.55
1146.65
1137.16
1124.25
1109.02
1092.29
1074.43
1056.34
1040.12
1025.93
1013.99
1004.49
997.6
993.393
991.29
990.987
992.61
996.095
1001.23
1007.84
1015.67
1024.53
1034.11
1044.16
1054.48
1064.91
1075.21
1085.19
1094.71
1103.75
1112.29
1120.3
1127.82
1134.89
1141.6
1148
1154.16
1160.11
1165.9
1171.54
1177.06
1182.46
1187.75
1192.92
1197.95
1202.82
1207.52
1212
1216.27
1220.27
1224.01
1227.47
1230.63
1233.47
1235.98
1238.18
1239.99
1241.32
1242.11
1242.34
1242.09
1241.43
1240.39
1238.95
1237.16
1235.01
1232.54
1229.78
1226.74
1223.45
1219.93
1216.15
1212.19
1208.02
1203.67
1199.2
1194.65
1189.97
1185.13
1180.14
1174.91
1169.7
1165.02
1160.99
1157.57
1154.3
1150.75
1145.86
1137.8
1123.93
1102.41
1071.9
1031.44
983.753
918.923
851.679
797.725
755.029
723.477
699.115
680.328
666.417
654.185
644.88
636.483
629.887
624.437
620.237
617.284
615.323
614.141
613.855
613.901
614.047
614.525
613.654
613.703
11993.7
2474.16
1213.8
853.12
703.529
630.656
593.34
575.061
567.467
564.842
563.99
564.079
565.877
568.824
572.744
577.566
583.302
590.007
597.764
606.648
616.687
627.819
639.902
652.776
666.323
680.456
695.148
710.505
726.533
743.298
760.793
778.999
797.884
817.396
837.484
858.112
879.257
900.901
923.029
945.629
968.702
992.308
1016.64
1041.64
1066.84
1091.53
1114.3
1138.38
1162.27
1185.92
1208.68
1230.03
1249.49
1266.89
1282.01
1294.5
1303.35
1306.47
1304.79
1302.45
1297.02
1289.13
1278.82
1265.92
1251.22
1234.32
1215.18
1194.42
1172.89
1151.24
1129.63
1110.42
1093.28
1077.61
1063.03
1050.14
1040.97
1034.12
1029.51
1027.17
1026.93
1028.57
1032.1
1037.25
1044.03
1052.01
1060.81
1070.26
1080.35
1090.66
1100.83
1110.64
1120.02
1128.96
1137.41
1145.4
1152.95
1160.13
1166.99
1173.61
1180.04
1186.31
1192.46
1198.48
1204.39
1210.17
1215.82
1221.31
1226.63
1231.73
1236.56
1241.12
1245.32
1249.16
1252.64
1255.73
1258.41
1260.69
1262.74
1264.34
1265.36
1265.61
1265.13
1264.17
1262.73
1260.83
1258.5
1255.74
1252.59
1249.08
1245.25
1241.15
1236.81
1232.24
1227.44
1222.43
1217.17
1211.69
1206.12
1200.51
1194.78
1188.79
1182.59
1175.8
1169.17
1163.24
1158.17
1153.14
1147.95
1141.28
1131.66
1117.18
1095.29
1065.37
1026.31
976.377
917.932
847.664
782.29
730.395
693.064
664.911
645.417
631.298
621.525
613.322
607.7
602.46
598.876
596.211
594.46
593.979
593.902
594.548
595.559
596.873
598.147
599.648
599.827
600.323
11981.1
2471.44
1214.66
855.921
707.858
636.394
600.581
583.833
577.703
576.161
576.243
578.419
581.98
586.626
592.208
598.676
606.054
614.404
623.82
634.377
646.095
658.885
672.583
687.015
702.065
717.678
733.854
750.504
767.631
785.421
803.902
823.274
843.674
865.063
887.322
910.393
934.236
958.792
983.968
1009.6
1035.39
1060.97
1088.43
1117.37
1146.73
1176
1205.13
1234.47
1263.63
1292.34
1320.2
1346.78
1371.72
1394.76
1415.61
1433.93
1449.19
1461.32
1468.69
1470.59
1467.78
1462.92
1454.61
1442.78
1427.85
1409.98
1388.48
1364.1
1338.13
1311.86
1285.81
1259.59
1234.19
1209.97
1186.97
1165.33
1146.01
1128.19
1113.23
1101.96
1093.57
1087.85
1084.53
1083.79
1086.44
1091.08
1096.76
1103.69
1111.63
1120.11
1128.72
1137.2
1145.54
1153.72
1161.69
1169.43
1176.95
1184.25
1191.39
1198.38
1205.26
1212.03
1218.72
1225.31
1231.79
1238.14
1244.34
1250.37
1256.2
1261.77
1267.04
1271.99
1276.56
1280.73
1284.47
1287.76
1290.6
1292.96
1294.88
1296.24
1296.78
1296.23
1294.93
1293.07
1290.7
1287.85
1284.53
1280.78
1276.6
1272.05
1267.19
1262.09
1256.8
1251.32
1245.65
1239.78
1233.65
1227.22
1220.77
1214.39
1207.88
1200.88
1193.53
1185.11
1176.6
1168.79
1161.45
1154.2
1145.29
1133.13
1116.2
1092.99
1061.39
1021.92
974.059
917.393
847.436
777.615
717.606
671.553
638.031
614.886
600.761
590.664
584.568
580.194
577.679
575.33
574.592
574.675
575.234
576.574
578.659
581.015
583.255
585.626
587.912
589.777
590.705
590.93
11993.7
2472.62
1215.41
857.339
710.166
639.7
604.984
589.413
584.526
584.506
587.213
591.678
597.449
604.274
612.045
620.728
630.363
641.023
652.817
665.825
680.074
695.46
711.777
728.818
746.435
764.544
783.171
802.352
821.815
841.323
860.768
880.932
902.537
925.741
950.001
975.178
1001.21
1028.05
1055.65
1083.93
1112.85
1142.44
1173.01
1204.41
1236.43
1268.87
1301.6
1334.53
1367.45
1400.1
1432.13
1463.19
1492.95
1521.07
1547.22
1571.02
1592.13
1610.28
1624.71
1635.1
1640.54
1641.04
1638.33
1631.46
1620.54
1605.86
1587.8
1566.1
1541.12
1513.65
1484.3
1453.43
1421.97
1391.02
1361.49
1333.24
1304.97
1277.82
1252.34
1228.61
1207.66
1190.6
1176.9
1166.49
1159.2
1154.3
1152.48
1154.74
1158.89
1163.97
1169.4
1175.1
1181.14
1187.47
1194.02
1200.71
1207.5
1214.34
1221.23
1228.16
1235.11
1242.06
1248.99
1255.88
1262.68
1269.36
1275.88
1282.2
1288.27
1294.06
1299.5
1304.56
1309.18
1313.33
1316.98
1320.11
1322.71
1324.79
1326.34
1327.06
1326.91
1325.9
1324.23
1321.94
1319.12
1315.78
1311.92
1307.56
1302.69
1297.35
1291.67
1285.79
1279.76
1273.57
1267.2
1260.62
1253.61
1246.05
1238.46
1230.77
1222.53
1213.66
1204.72
1193.39
1183.18
1173.88
1164.27
1152.27
1136.89
1116.35
1089.55
1056.21
1015.15
967.745
912.738
848.194
777.051
709.695
657.285
617.412
590.008
572.98
563.912
557.223
554.6
553.376
553.583
554.256
556.149
558.92
562.752
566.569
570.419
573.908
576.722
579.912
582.653
584.294
584.826
584.81
12011.8
2477.11
1216.84
858.368
711.58
641.847
608.068
593.525
589.528
591.878
597.967
605.449
614.091
623.833
634.705
646.694
659.839
674.208
689.848
706.624
724.628
743.97
764.458
785.921
808.052
830.284
852.801
875.683
898.502
921.399
944.589
968.274
992.684
1017.94
1044
1070.8
1098.32
1126.52
1155.4
1184.95
1215.18
1246.12
1277.87
1310.43
1343.73
1377.68
1412.16
1447.07
1482.24
1517.47
1552.46
1586.87
1620.35
1652.56
1683.13
1711.67
1737.8
1761.15
1781.29
1797.81
1810.2
1818.33
1821.87
1820.84
1815.32
1805.2
1791.11
1773.11
1751.27
1725.91
1697.58
1666.37
1632.77
1597.59
1561.76
1526.15
1491.28
1457.9
1425.45
1393.34
1362.35
1333.16
1307.57
1285.51
1266.83
1251.33
1239.25
1229.88
1225.95
1226.25
1226.54
1227.54
1229.66
1232.81
1236.78
1241.39
1246.54
1252.14
1258.09
1264.33
1270.79
1277.4
1284.11
1290.85
1297.54
1304.12
1310.53
1316.72
1322.62
1328.19
1333.36
1338.1
1342.32
1346
1349.08
1351.56
1353.48
1354.91
1355.51
1355.24
1354.18
1352.36
1349.83
1346.74
1343.12
1339.01
1334.37
1329.2
1323.43
1317.12
1310.43
1303.61
1296.66
1289.62
1282.41
1274.8
1266.43
1257.32
1248.48
1239.7
1230.06
1218.53
1208.29
1197.48
1186.38
1173.6
1158.14
1138.23
1113.25
1082.23
1045.28
1003.17
955.429
901.429
842.147
773.352
705.063
646.637
603.333
570.501
549.486
539.278
533.895
531.404
531.492
533.292
537.192
541.64
547.439
552.547
558.399
563.464
568.104
571.868
574.786
578.335
581.14
582.132
582.067
581.541
12008.5
2481.33
1218.78
860.345
714.387
645.987
613.901
601.259
599.019
603.677
613.338
624.88
637.106
650.644
666.567
684.512
704.505
726.725
751.314
777.878
805.779
834.909
863.817
892.491
920.65
948.053
975.193
1002.13
1029.16
1056.37
1083.76
1111.34
1139.08
1166.96
1194.97
1223.09
1251.35
1279.78
1308.44
1337.42
1366.78
1396.65
1427.12
1458.29
1490.23
1522.96
1556.46
1590.69
1625.61
1661.13
1697.09
1733.03
1768.49
1803.24
1836.84
1868.85
1898.81
1926.32
1950.92
1972.25
1989.9
2003.53
2012.91
2017.91
2017.55
2010.76
2000.34
1985.8
1967.02
1944.15
1917.37
1886.8
1852.79
1815.81
1776.68
1736.2
1695.1
1654.27
1614.34
1575.85
1538.46
1501.27
1465.32
1432.2
1402.17
1375.4
1352.12
1332.21
1317.51
1308.01
1300.39
1294.15
1290.84
1289.86
1290.24
1291.76