/*--------------------------------*- C++ -*----------------------------------*\
| =========                 |                                                 |
| \\      /  F ield         | OpenFOAM: The Open Source CFD Toolbox           |
|  \\    /   O peration     | Version:  4.x                                   |
|   \\  /    A nd           | Web:      www.OpenFOAM.org                      |
|    \\/     M anipulation  |                                                 |
\*---------------------------------------------------------------------------*/
FoamFile
{
    version     2.0;
    format      ascii;
    class       volScalarField;
    location    "200";
    object      p;
}
// * * * * * * * * * * * * * * * * * * * * * * * * * * * * * * * * * * * * * //

dimensions      [0 2 -2 0 0 0 0];

internalField   nonuniform List<scalar> 
12225
(
-4.86426
-5.73874
-6.12455
-6.23897
-6.3574
-6.50206
-6.63292
-6.74069
-6.83315
-6.91819
-7.00091
-7.0821
-7.16241
-7.2439
-7.32945
-7.42391
-7.53107
-7.66312
-5.14244
-5.7922
-6.11609
-6.22609
-6.34121
-6.48165
-6.61039
-6.71801
-6.81213
-6.89981
-6.98402
-7.06568
-7.14584
-7.2265
-7.3101
-7.39998
-7.49489
-7.58935
-5.35154
-5.78897
-6.09082
-6.22491
-6.34558
-6.48246
-6.6083
-6.71438
-6.80793
-6.89524
-6.97822
-7.05813
-7.13617
-7.21401
-7.29306
-7.37433
-7.45281
-7.51509
-5.50008
-5.81387
-6.09968
-6.24412
-6.35951
-6.4864
-6.60608
-6.70904
-6.80069
-6.88625
-6.96763
-7.0459
-7.12206
-7.1971
-7.27155
-7.34469
-7.411
-7.46011
-5.62702
-5.86126
-6.11655
-6.26105
-6.37198
-6.49143
-6.60633
-6.70684
-6.79674
-6.88061
-6.96036
-7.03671
-7.11041
-7.18196
-7.25129
-7.31693
-7.37432
-7.41624
-5.74211
-5.91435
-6.13278
-6.27493
-6.38403
-6.49747
-6.60748
-6.70521
-6.7931
-6.87509
-6.95286
-7.02692
-7.09777
-7.1656
-7.22998
-7.28923
-7.33992
-7.37713
-5.84636
-5.97055
-6.15308
-6.28972
-6.39645
-6.50362
-6.60815
-6.70266
-6.78829
-6.8682
-6.94377
-7.01538
-7.08328
-7.14747
-7.20731
-7.26132
-7.30707
-7.34153
-5.92657
-6.02061
-6.17539
-6.30414
-6.40754
-6.50917
-6.6087
-6.70008
-6.78345
-6.86129
-6.93472
-7.00404
-7.06934
-7.13049
-7.18685
-7.23719
-7.27984
-7.31289
-5.99181
-6.06574
-6.19786
-6.31812
-6.41794
-6.5146
-6.60952
-6.69782
-6.77894
-6.8547
-6.92605
-6.99321
-7.05614
-7.11465
-7.16817
-7.21572
-7.25615
-7.2883
-6.05682
-6.11444
-6.22474
-6.33476
-6.42997
-6.52124
-6.61104
-6.6957
-6.7741
-6.84738
-6.9163
-6.981
-7.04135
-7.09715
-7.1479
-7.19289
-7.23144
-7.26292
-6.12079
-6.16541
-6.25583
-6.35427
-6.44369
-6.52918
-6.61342
-6.69385
-6.76903
-6.83942
-6.90556
-6.96751
-7.02512
-7.07816
-7.12624
-7.16892
-7.20585
-7.23681
-6.18268
-6.21722
-6.29039
-6.37654
-6.459
-6.53838
-6.61671
-6.69238
-6.76382
-6.83092
-6.89395
-6.95292
-7.00765
-7.05793
-7.1035
-7.1441
-7.17964
-7.21009
-6.24134
-6.26823
-6.32704
-6.40101
-6.47562
-6.54857
-6.62081
-6.69129
-6.75851
-6.82195
-6.88162
-6.93743
-6.98923
-7.03681
-7.08003
-7.11877
-7.15308
-7.18306
-6.29539
-6.31655
-6.36385
-6.42654
-6.49292
-6.55925
-6.62536
-6.69042
-6.75309
-6.81262
-6.86874
-6.92133
-6.97019
-7.01521
-7.05624
-7.09334
-7.12653
-7.15607
-6.34301
-6.35996
-6.39837
-6.45131
-6.50973
-6.56952
-6.62968
-6.68938
-6.74741
-6.80291
-6.85548
-6.90487
-6.95093
-6.99353
-7.03262
-7.06823
-7.10047
-7.12955
-6.38177
-6.3957
-6.4276
-6.47277
-6.52419
-6.57798
-6.63272
-6.68744
-6.74107
-6.79272
-6.8419
-6.88833
-6.93182
-6.97226
-7.00964
-7.04399
-7.0754
-7.10407
-6.40821
-6.42017
-6.44775
-6.48746
-6.53357
-6.58256
-6.63285
-6.68344
-6.73333
-6.78167
-6.82794
-6.87181
-6.91313
-6.95179
-6.98777
-7.02111
-7.05188
-7.08026
-6.41657
-6.42774
-6.45357
-6.49085
-6.5343
-6.58058
-6.62824
-6.67628
-6.72379
-6.76994
-6.81427
-6.85642
-6.89629
-6.93374
-6.96881
-7.0015
-7.0319
-7.06016
-6.40633
-6.41793
-6.4446
-6.48262
-6.52623
-6.57219
-6.61924
-6.66658
-6.71328
-6.75861
-6.80207
-6.84349
-6.88267
-6.9196
-6.95425
-6.98671
-7.01699
-7.04533
-6.3822
-6.39533
-6.4252
-6.46659
-6.51256
-6.55989
-6.60786
-6.65584
-6.70292
-6.74837
-6.79183
-6.83314
-6.87223
-6.90906
-6.94367
-6.9761
-7.00648
-7.03494
-6.34723
-6.36319
-6.39882
-6.44598
-6.4958
-6.54557
-6.59547
-6.64504
-6.69323
-6.73939
-6.78332
-6.82496
-6.86427
-6.90125
-6.93598
-6.96854
-6.99906
-7.02771
-6.30306
-6.32369
-6.36827
-6.4234
-6.47786
-6.5306
-6.58312
-6.63488
-6.6846
-6.73179
-6.77646
-6.81867
-6.85836
-6.89561
-6.93051
-6.96324
-6.99389
-7.02274
-6.25041
-6.27856
-6.33614
-6.40092
-6.46006
-6.51597
-6.57161
-6.62586
-6.67723
-6.72558
-6.77116
-6.81403
-6.8542
-6.89172
-6.92681
-6.95964
-6.99041
-7.01935
-6.18917
-6.22944
-6.30507
-6.38015
-6.44307
-6.50225
-6.56143
-6.61826
-6.67121
-6.72071
-6.76723
-6.81081
-6.85143
-6.88921
-6.92441
-6.9573
-6.98808
-7.01709
-6.11855
-6.17804
-6.27787
-6.36239
-6.42732
-6.48969
-6.55263
-6.61191
-6.66629
-6.71691
-6.76439
-6.80866
-6.84967
-6.88762
-6.92283
-6.95562
-6.98628
-7.01521
-6.03758
-6.12596
-6.25585
-6.34803
-6.41339
-6.47864
-6.54487
-6.60602
-6.66153
-6.71322
-6.7617
-6.80674
-6.84823
-6.88641
-6.92166
-6.95438
-6.98495
-7.01397
-5.94558
-6.07712
-6.2366
-6.33254
-6.39921
-6.46875
-6.53822
-6.60073
-6.65703
-6.70957
-6.75885
-6.80443
-6.84616
-6.88435
-6.91937
-6.95174
-6.98192
-7.01068
-5.83424
-6.04461
-6.22398
-6.31164
-6.37922
-6.45579
-6.53041
-6.5957
-6.65419
-6.70891
-6.76006
-6.80703
-6.8497
-6.88837
-6.9235
-6.95575
-6.98583
-7.01539
-5.6621
-6.03611
-6.24725
-6.31537
-6.37433
-6.45143
-6.52639
-6.59087
-6.64905
-6.70421
-6.75605
-6.80358
-6.84661
-6.8853
-6.91989
-6.95101
-6.97983
-7.00763
-5.40303
-5.96232
-6.23882
-6.31457
-6.37774
-6.46081
-6.53949
-6.60553
-6.66481
-6.7211
-6.77393
-6.82216
-6.8655
-6.90394
-6.93705
-6.96526
-6.99024
-7.01134
-7.94398
-7.94401
-7.94366
-7.94187
-7.937
-7.92991
-7.924
-7.92295
-7.92816
-7.93794
-7.95068
-7.96608
-7.98418
-8.00432
-8.02554
-8.04687
-8.06784
-8.08802
-8.1073
-8.12531
-8.14198
-8.15698
-8.17029
-8.18156
-8.19093
-8.19845
-8.20455
-8.20931
-8.2131
-8.21597
-8.21833
-8.22035
-8.22252
-8.22483
-8.22761
-8.23089
-8.23511
-8.24031
-8.24682
-8.25457
-8.26376
-8.27419
-8.28588
-8.29848
-8.31186
-8.32566
-8.33972
-8.35365
-8.36728
-8.38032
-8.39248
-8.4032
-8.41174
-8.41714
-8.41905
-8.41722
-8.41251
-8.40607
-8.39894
-8.39235
-8.38775
-8.38565
-8.38605
-8.38827
-8.39211
-8.39764
-8.40538
-8.4157
-8.42925
-8.4459
-8.46511
-8.48478
-8.50276
-8.51667
-8.52768
-8.53667
-8.5413
-8.5387
-8.54081
-8.57452
-8.66349
-8.81727
-9.03066
-9.28544
-9.56151
-9.83932
-10.1058
-10.3523
-10.5755
-10.7745
-10.9506
-11.1067
-11.2457
-11.3704
-11.483
-11.5849
-11.6772
-11.7604
-11.8346
-11.8995
-11.9548
-12.0002
-12.0353
-12.0599
-12.0729
-12.0737
-12.0613
-12.0356
-11.9959
-11.9423
-11.8742
-11.792
-11.6955
-11.5853
-11.4613
-11.3244
-11.1743
-11.0117
-10.8363
-10.6485
-10.4475
-10.2338
-10.0069
-9.76764
-9.51644
-9.25565
-8.98679
-8.71289
-8.43559
-8.15722
-7.87928
-7.60453
-7.33469
-7.071
-6.81176
-6.55502
-6.29776
-6.03859
-5.77572
-5.50816
-5.2342
-4.95513
-4.67321
-4.39404
-4.1231
-3.86726
-3.63197
-3.42181
-3.23719
-3.07234
-2.91382
-2.73889
-2.51699
-2.20977
-1.77578
-1.1739
-0.370606
0.654207
1.90123
3.34907
4.9539
6.65368
8.3761
10.0492
11.6114
13.0175
14.2397
15.2683
16.1062
16.7657
17.2647
17.619
17.8451
17.9645
18.002
17.9835
17.9391
17.8965
17.9232
17.9912
-7.94796
-7.94847
-7.94992
-7.94988
-7.94637
-7.9426
-7.94283
-7.94782
-7.95628
-7.9673
-7.98067
-7.99619
-8.0135
-8.03191
-8.0508
-8.06959
-8.08801
-8.10575
-8.12266
-8.13844
-8.15303
-8.1662
-8.17801
-8.1884
-8.19739
-8.20471
-8.21049
-8.21472
-8.21768
-8.21952
-8.22064
-8.22113
-8.22141
-8.22174
-8.22266
-8.22441
-8.22737
-8.2317
-8.23768
-8.24533
-8.25477
-8.26588
-8.27867
-8.29288
-8.3082
-8.32401
-8.33987
-8.35522
-8.37003
-8.38416
-8.39723
-8.40836
-8.41682
-8.42188
-8.42341
-8.42141
-8.41658
-8.40975
-8.4019
-8.39409
-8.38759
-8.38326
-8.3816
-8.38252
-8.386
-8.39193
-8.40049
-8.41186
-8.42596
-8.44196
-8.45883
-8.47446
-8.48541
-8.48984
-8.49553
-8.50632
-8.50624
-8.49034
-8.494
-8.55606
-8.69336
-8.89962
-9.15417
-9.43225
-9.71305
-9.98167
-10.2301
-10.4548
-10.656
-10.8353
-10.9945
-11.137
-11.2655
-11.3822
-11.4887
-11.5863
-11.6758
-11.7574
-11.8312
-11.8964
-11.9528
-11.9996
-12.0362
-12.0618
-12.0756
-12.0769
-12.0653
-12.0401
-12.0009
-11.9473
-11.8793
-11.7969
-11.7003
-11.5897
-11.4656
-11.3287
-11.1791
-11.0172
-10.8428
-10.6559
-10.4563
-10.2442
-10.0193
-9.78192
-9.53258
-9.27317
-9.00552
-8.73172
-8.45388
-8.17389
-7.89375
-7.61596
-7.34257
-7.07466
-6.81135
-6.5507
-6.2903
-6.02858
-5.76391
-5.49502
-5.2206
-4.94126
-4.65916
-4.37885
-4.1059
-3.84684
-3.60804
-3.39453
-3.20806
-3.04386
-2.88978
-2.72454
-2.51843
-2.23372
-1.8285
-1.26033
-0.493586
0.494828
1.70838
3.12769
4.70987
6.39297
8.10395
9.76984
11.3283
12.7344
13.961
14.9986
15.8494
16.5215
17.0301
17.3943
17.6323
17.7655
17.818
17.8146
17.784
17.7489
17.7644
17.7951
-7.951
-7.94998
-7.9494
-7.94994
-7.95115
-7.95442
-7.96122
-7.97106
-7.98303
-7.99665
-8.01167
-8.02769
-8.04432
-8.06114
-8.07788
-8.09423
-8.11
-8.12493
-8.13896
-8.15186
-8.16361
-8.17405
-8.1832
-8.19094
-8.1973
-8.20215
-8.20562
-8.20777
-8.20888
-8.20914
-8.20891
-8.20845
-8.20821
-8.20851
-8.20978
-8.21224
-8.21621
-8.2218
-8.22919
-8.23839
-8.24944
-8.26217
-8.27646
-8.29194
-8.30827
-8.325
-8.34178
-8.35821
-8.37398
-8.38861
-8.40148
-8.41201
-8.41982
-8.42447
-8.42575
-8.42357
-8.41836
-8.41095
-8.40226
-8.39311
-8.38448
-8.37746
-8.37306
-8.37182
-8.37402
-8.37967
-8.38854
-8.40032
-8.41423
-8.42843
-8.44059
-8.44914
-8.45712
-8.4676
-8.48264
-8.51259
-8.56004
-8.62647
-8.72204
-8.85606
-9.03002
-9.23539
-9.45944
-9.68979
-9.91683
-10.1339
-10.3374
-10.5257
-10.6987
-10.8567
-11.0005
-11.1321
-11.2532
-11.3649
-11.4685
-11.5647
-11.654
-11.7361
-11.8109
-11.8776
-11.9361
-11.9855
-12.0254
-12.0544
-12.0718
-12.0762
-12.0676
-12.045
-12.0084
-11.9567
-11.8905
-11.8092
-11.7134
-11.6032
-11.4793
-11.3418
-11.1918
-11.0291
-10.8544
-10.6672
-10.4681
-10.2568
-10.0335
-9.79799
-9.55123
-9.29396
-9.02806
-8.75515
-8.47739
-8.19622
-7.91396
-7.63287
-7.35537
-7.08243
-6.8143
-6.54919
-6.28562
-6.02256
-5.75862
-5.4919
-5.22139
-4.94671
-4.66986
-4.39399
-4.12409
-3.86617
-3.62638
-3.41007
-3.21949
-3.05167
-2.89617
-2.73422
-2.53799
-2.2714
-1.89256
-1.35811
-0.629497
0.32003
1.498
2.88777
4.44767
6.11509
7.81575
9.47554
11.031
12.4375
13.6685
14.7144
15.5755
16.259
16.7792
17.1543
17.404
17.5503
17.6168
17.6274
17.6084
17.578
17.5731
17.5419
-7.95632
-7.95517
-7.9555
-7.96037
-7.96765
-7.97628
-7.98653
-7.99828
-8.01126
-8.02515
-8.03975
-8.05472
-8.06986
-8.0849
-8.09965
-8.11386
-8.12738
-8.13998
-8.1516
-8.16209
-8.17142
-8.17947
-8.18626
-8.19167
-8.19578
-8.19852
-8.20008
-8.20053
-8.20017
-8.19917
-8.1979
-8.19663
-8.19578
-8.19567
-8.19673
-8.19926
-8.20362
-8.20998
-8.21855
-8.22928
-8.24211
-8.25679
-8.27301
-8.29032
-8.30829
-8.32646
-8.34445
-8.36182
-8.37808
-8.39261
-8.40495
-8.41476
-8.42174
-8.42548
-8.42577
-8.42262
-8.41646
-8.40791
-8.39773
-8.38687
-8.37646
-8.36759
-8.36128
-8.35812
-8.35855
-8.36265
-8.36995
-8.37941
-8.38977
-8.39835
-8.4037
-8.40502
-8.40811
-8.43103
-8.48705
-8.57744
-8.69508
-8.83021
-8.97666
-9.13468
-9.30597
-9.48852
-9.67817
-9.86993
-10.0591
-10.242
-10.4163
-10.5806
-10.7344
-10.8779
-11.0111
-11.1349
-11.2505
-11.359
-11.4609
-11.5565
-11.6459
-11.7288
-11.8047
-11.8731
-11.9333
-11.9848
-12.0267
-12.058
-12.0779
-12.0853
-12.0795
-12.0599
-12.0259
-11.9769
-11.9127
-11.8332
-11.7385
-11.6291
-11.5054
-11.3678
-11.2167
-11.0527
-10.8764
-10.6879
-10.4876
-10.2756
-10.0521
-9.81746
-9.57233
-9.31701
-9.0526
-8.78074
-8.50314
-8.22106
-7.93645
-7.65158
-7.36888
-7.08961
-6.81443
-6.54261
-6.27368
-6.00698
-5.7418
-5.47649
-5.21005
-4.94174
-4.6728
-4.40543
-4.14333
-3.89161
-3.65522
-3.43913
-3.24546
-3.07241
-2.91136
-2.74623
-2.55165
-2.29406
-1.93261
-1.42367
-0.726175
0.190652
1.33893
2.70519
4.24885
5.90573
7.60002
9.25693
10.8137
12.2254
13.4647
14.5187
15.3858
16.0737
16.597
16.9741
17.2258
17.3747
17.4443
17.4578
17.4391
17.4026
17.3704
17.283
-7.96344
-7.96439
-7.9689
-7.97699
-7.98694
-7.99802
-8.00989
-8.02239
-8.0355
-8.04903
-8.06285
-8.07673
-8.09053
-8.10402
-8.11708
-8.12949
-8.14116
-8.15187
-8.16157
-8.17009
-8.17743
-8.18346
-8.1882
-8.19157
-8.19367
-8.19453
-8.19437
-8.19331
-8.19162
-8.18951
-8.18737
-8.18553
-8.18444
-8.18442
-8.1859
-8.18914
-8.19442
-8.20187
-8.21162
-8.22355
-8.23755
-8.25328
-8.27045
-8.28862
-8.30744
-8.32646
-8.34533
-8.36343
-8.38016
-8.39498
-8.40753
-8.41745
-8.4244
-8.4279
-8.42781
-8.42411
-8.41708
-8.40714
-8.39518
-8.38226
-8.36945
-8.35797
-8.34914
-8.34396
-8.34271
-8.34478
-8.34987
-8.3564
-8.36196
-8.36434
-8.36479
-8.37276
-8.40192
-8.46549
-8.56641
-8.69531
-8.84022
-8.99334
-9.1507
-9.31197
-9.47761
-9.6467
-9.81731
-9.98705
-10.1536
-10.3149
-10.4699
-10.6177
-10.7583
-10.8913
-11.017
-11.1357
-11.2482
-11.3552
-11.4567
-11.5528
-11.6432
-11.7278
-11.8057
-11.8767
-11.9396
-11.9938
-12.038
-12.0717
-12.0939
-12.1041
-12.1008
-12.0837
-12.0521
-12.0057
-11.9436
-11.8661
-11.7729
-11.6646
-11.5413
-11.4037
-11.2518
-11.0867
-10.9085
-10.7182
-10.5158
-10.3022
-10.0774
-9.84261
-9.59776
-9.34362
-9.08057
-8.8101
-8.53302
-8.25092
-7.96493
-7.67738
-7.39014
-7.10514
-6.82291
-6.5443
-6.26928
-5.9979
-5.72972
-5.46428
-5.20037
-4.93789
-4.6769
-4.41935
-4.16764
-3.92531
-3.69627
-3.48409
-3.29078
-3.1144
-2.94811
-2.77777
-2.58122
-2.32727
-1.97739
-1.48788
-0.816108
0.0726827
1.19469
2.54014
4.06936
5.71782
7.40844
9.06618
10.6287
12.0502
13.3
14.3629
15.2365
15.9288
16.455
16.8338
17.0865
17.236
17.3049
17.3157
17.2897
17.2379
17.1741
17.0392
-7.97013
-7.97364
-7.98266
-7.9928
-8.00355
-8.01515
-8.02732
-8.03981
-8.05264
-8.06564
-8.07872
-8.09167
-8.10441
-8.11674
-8.12856
-8.13968
-8.15002
-8.1594
-8.16774
-8.17488
-8.18081
-8.1854
-8.18867
-8.19061
-8.19139
-8.19104
-8.18967
-8.18745
-8.18471
-8.18171
-8.17887
-8.17654
-8.17519
-8.17518
-8.17695
-8.18073
-8.18677
-8.19513
-8.20582
-8.21868
-8.23354
-8.25007
-8.26796
-8.28681
-8.30628
-8.32597
-8.34546
-8.36415
-8.38148
-8.39681
-8.40977
-8.42001
-8.42714
-8.43063
-8.43026
-8.42581
-8.41738
-8.40558
-8.39151
-8.37634
-8.36141
-8.3483
-8.33825
-8.33177
-8.32885
-8.32803
-8.32787
-8.32719
-8.32567
-8.32837
-8.34365
-8.38208
-8.45105
-8.55036
-8.67343
-8.81251
-8.96075
-9.11402
-9.26997
-9.42754
-9.58605
-9.74462
-9.90209
-10.0572
-10.2088
-10.3562
-10.4986
-10.6359
-10.7678
-10.8946
-11.0157
-11.1318
-11.2433
-11.3504
-11.4532
-11.5512
-11.644
-11.7313
-11.8124
-11.8865
-11.9529
-12.0103
-12.0578
-12.0944
-12.1195
-12.1321
-12.1313
-12.1165
-12.087
-12.0424
-11.9825
-11.9067
-11.8153
-11.7081
-11.5855
-11.4479
-11.296
-11.1301
-10.9507
-10.7587
-10.5548
-10.3394
-10.1133
-9.87738
-9.6322
-9.37832
-9.11644
-8.8471
-8.57091
-8.28915
-8.00302
-7.71432
-7.42477
-7.13588
-6.84874
-6.56445
-6.28381
-6.00755
-5.73575
-5.46832
-5.20492
-4.94557
-4.69059
-4.4411
-4.19879
-3.96574
-3.74485
-3.5385
-3.34789
-3.17102
-3.00183
-2.82804
-2.63005
-2.37936
-2.03963
-1.56792
-0.920163
-0.0586362
1.03668
2.35937
3.87122
5.50857
7.19445
8.85396
10.4233
11.8538
13.1128
14.1842
15.065
15.7636
16.295
16.6785
16.9354
17.0883
17.159
17.1684
17.1351
17.0677
16.9757
16.8052
-7.97405
-7.98007
-7.99079
-8.00119
-8.01191
-8.02351
-8.03567
-8.04803
-8.06053
-8.07302
-8.08546
-8.09767
-8.10961
-8.1211
-8.13208
-8.14238
-8.1519
-8.16046
-8.16799
-8.17434
-8.17944
-8.18319
-8.18565
-8.18682
-8.18679
-8.18561
-8.18346
-8.18053
-8.17716
-8.17367
-8.17045
-8.16786
-8.16637
-8.16633
-8.16817
-8.1721
-8.17837
-8.18702
-8.19806
-8.21136
-8.22674
-8.24387
-8.26246
-8.2821
-8.30249
-8.32317
-8.34364
-8.36333
-8.38172
-8.39801
-8.41156
-8.42195
-8.42893
-8.43213
-8.4312
-8.42556
-8.41518
-8.40111
-8.3849
-8.36801
-8.35212
-8.33862
-8.32804
-8.31943
-8.31123
-8.3016
-8.28963
-8.27827
-8.27408
-8.28751
-8.32754
-8.397
-8.49283
-8.60963
-8.74127
-8.88276
-9.03029
-9.18118
-9.33359
-9.48633
-9.63854
-9.78943
-9.9382
-10.0842
-10.227
-10.3662
-10.5015
-10.6329
-10.7607
-10.8845
-11.0043
-11.1204
-11.2331
-11.3425
-11.4481
-11.5495
-11.6463
-11.7375
-11.8228
-11.9011
-11.9716
-12.0329
-12.0842
-12.1242
-12.1524
-12.1677
-12.1696
-12.157
-12.1297
-12.087
-12.0289
-11.9548
-11.865
-11.759
-11.6376
-11.5007
-11.3491
-11.1828
-11.0029
-10.8099
-10.605
-10.3884
-10.1613
-9.92425
-9.67836
-9.42394
-9.16208
-8.89283
-8.61696
-8.33532
-8.04951
-7.76069
-7.47044
-7.17971
-6.88985
-6.60191
-6.31737
-6.03702
-5.76164
-5.49135
-5.22681
-4.96828
-4.71648
-4.47218
-4.23649
-4.01092
-3.79711
-3.5967
-3.40985
-3.23463
-3.06514
-2.89071
-2.69348
-2.4475
-2.11807
-1.66349
-1.03856
-0.203648
0.864664
2.16276
3.65475
5.27799
6.95674
8.61519
10.1874
11.6226
12.8874
13.9648
14.852
15.557
16.0951
16.4853
16.7488
16.9076
16.9825
16.9927
16.9544
16.8749
16.7621
16.5682
-7.96732
-7.97441
-7.98542
-7.99686
-8.00874
-8.02106
-8.03356
-8.04597
-8.05827
-8.07038
-8.08234
-8.09406
-8.1055
-8.11652
-8.12706
-8.13694
-8.14607
-8.15427
-8.16146
-8.16746
-8.17223
-8.17567
-8.17785
-8.17874
-8.17837
-8.17684
-8.17446
-8.1714
-8.16793
-8.16435
-8.16106
-8.15841
-8.15686
-8.15677
-8.1585
-8.16226
-8.16832
-8.17676
-8.18769
-8.20103
-8.21672
-8.23443
-8.25377
-8.27429
-8.29567
-8.31743
-8.33911
-8.36016
-8.38002
-8.39792
-8.41308
-8.42464
-8.43195
-8.43428
-8.43111
-8.42238
-8.40907
-8.39265
-8.3747
-8.35663
-8.33972
-8.32436
-8.30981
-8.29398
-8.27436
-8.25012
-8.22418
-8.20568
-8.20616
-8.23412
-8.29223
-8.37802
-8.48624
-8.61078
-8.74664
-8.88994
-9.03776
-9.18795
-9.3389
-9.48939
-9.63846
-9.78543
-9.92991
-10.0717
-10.2105
-10.3462
-10.4788
-10.6086
-10.7356
-10.86
-10.9813
-11.1
-11.2161
-11.3296
-11.4398
-11.5462
-11.648
-11.7447
-11.8351
-11.9186
-11.9938
-12.0597
-12.1151
-12.159
-12.1907
-12.2092
-12.2139
-12.204
-12.179
-12.1386
-12.0825
-12.0104
-11.9222
-11.8179
-11.6976
-11.5617
-11.4104
-11.2442
-11.0638
-10.8702
-10.6641
-10.4465
-10.2183
-9.98012
-9.73295
-9.47741
-9.21434
-8.9443
-8.66798
-8.38634
-8.10072
-7.81219
-7.52184
-7.23061
-6.93968
-6.65021
-6.36362
-6.0809
-5.80298
-5.53057
-5.26462
-5.00601
-4.75554
-4.51409
-4.2825
-4.06196
-3.85353
-3.65806
-3.4751
-3.30249
-3.13466
-2.96176
-2.7674
-2.52732
-2.20809
-1.76877
-1.16366
-0.351783
0.691887
1.96543
3.43612
5.04328
6.71133
8.3631
9.9316
11.3651
12.6301
13.7095
14.6005
15.3108
15.8557
16.2535
16.525
16.6912
16.7718
16.7845
16.7439
16.6563
16.5294
16.3217
-7.94447
-7.95152
-7.96477
-7.97939
-7.99376
-8.00764
-8.02101
-8.0338
-8.04615
-8.05812
-8.06984
-8.0813
-8.0925
-8.10332
-8.1137
-8.12346
-8.13251
-8.14067
-8.14785
-8.15388
-8.15873
-8.16234
-8.16474
-8.16588
-8.16588
-8.16483
-8.16297
-8.16045
-8.15757
-8.15463
-8.15201
-8.15005
-8.14917
-8.14967
-8.15187
-8.15596
-8.16219
-8.17066
-8.18148
-8.19461
-8.21008
-8.22769
-8.24717
-8.26812
-8.29013
-8.31263
-8.33518
-8.35734
-8.37865
-8.39846
-8.4158
-8.42905
-8.43637
-8.43627
-8.42877
-8.41547
-8.39825
-8.37847
-8.35743
-8.33602
-8.31468
-8.2923
-8.26651
-8.2349
-8.19721
-8.15721
-8.12283
-8.10451
-8.11169
-8.14936
-8.2176
-8.31188
-8.42627
-8.55513
-8.69409
-8.83968
-8.98924
-9.14069
-9.29238
-9.44296
-9.59159
-9.73798
-9.88197
-10.0234
-10.1622
-10.2982
-10.4318
-10.5632
-10.6929
-10.8205
-10.9462
-11.0698
-11.1914
-11.3107
-11.4271
-11.54
-11.6483
-11.7513
-11.8479
-11.9372
-12.0179
-12.0889
-12.149
-12.1975
-12.2331
-12.2554
-12.2633
-12.2566
-12.2343
-12.1965
-12.1425
-12.0726
-11.986
-11.8831
-11.7637
-11.6282
-11.4768
-11.3103
-11.1292
-10.9347
-10.7273
-10.5085
-10.2786
-10.0391
-9.79035
-9.53347
-9.26904
-8.99807
-8.72113
-8.43942
-8.15387
-7.86566
-7.57551
-7.28451
-6.99349
-6.70379
-6.41633
-6.13236
-5.85284
-5.57899
-5.31175
-5.05242
-4.80205
-4.5617
-4.33223
-4.11456
-3.90966
-3.71773
-3.53809
-3.36818
-3.20291
-3.03274
-2.84252
-2.60885
-2.29941
-1.87332
-1.28496
-0.492093
0.530899
1.78332
3.23325
4.82171
6.47349
8.11156
9.66847
11.0929
12.3515
13.4279
14.3191
15.0328
15.5833
15.9889
16.269
16.4435
16.531
16.5478
16.5073
16.4155
16.2799
16.0652
-7.90619
-7.91403
-7.93188
-7.95135
-7.96909
-7.98508
-7.99969
-8.01311
-8.02567
-8.03762
-8.04925
-8.0606
-8.07172
-8.08249
-8.09287
-8.10266
-8.1118
-8.1201
-8.12747
-8.13378
-8.13901
-8.14309
-8.14606
-8.14792
-8.1488
-8.14878
-8.1481
-8.14694
-8.14563
-8.14443
-8.1437
-8.14374
-8.14491
-8.14745
-8.15164
-8.15764
-8.16558
-8.17551
-8.1875
-8.20149
-8.21752
-8.23545
-8.2552
-8.27648
-8.29883
-8.32164
-8.34449
-8.36691
-8.38851
-8.40854
-8.42541
-8.43667
-8.44036
-8.43556
-8.42296
-8.40432
-8.38153
-8.35596
-8.32843
-8.29828
-8.26438
-8.22493
-8.17847
-8.12515
-8.06853
-8.01599
-7.97735
-7.96215
-7.97728
-8.02475
-8.10186
-8.20287
-8.32192
-8.4541
-8.5957
-8.74359
-8.89519
-9.04844
-9.20164
-9.35363
-9.50391
-9.65229
-9.79856
-9.94258
-10.0843
-10.2238
-10.3614
-10.4975
-10.6324
-10.7664
-10.8987
-11.0294
-11.1585
-11.2855
-11.4098
-11.5303
-11.6463
-11.7566
-11.8603
-11.9561
-12.043
-12.1197
-12.1853
-12.2385
-12.2788
-12.3051
-12.3169
-12.3134
-12.2942
-12.2589
-12.2071
-12.1386
-12.0532
-11.9509
-11.8318
-11.696
-11.5441
-11.3768
-11.1949
-10.9992
-10.7906
-10.5702
-10.339
-10.0977
-9.8474
-9.58893
-9.32316
-9.05101
-8.77328
-8.49103
-8.20521
-7.91682
-7.62669
-7.3358
-7.04498
-6.75538
-6.46795
-6.18372
-5.9036
-5.62887
-5.36075
-5.10065
-4.85001
-4.60997
-4.38149
-4.16549
-3.9628
-3.77343
-3.59644
-3.42915
-3.26648
-3.09931
-2.91285
-2.68434
-2.38204
-1.96506
-1.38804
-0.608918
0.397296
1.63028
3.0588
4.62504
6.25457
7.87136
9.40866
10.8164
12.062
13.1299
14.0174
14.7318
15.2866
15.6992
15.9878
16.1711
16.2663
16.2886
16.2502
16.1571
16.0172
15.8004
-7.85842
-7.86839
-7.892
-7.91677
-7.93807
-7.95632
-7.97227
-7.98633
-7.99908
-8.01101
-8.02255
-8.03382
-8.04487
-8.05558
-8.06592
-8.07574
-8.08498
-8.09346
-8.10113
-8.10784
-8.11359
-8.11832
-8.12208
-8.12488
-8.12689
-8.12824
-8.12916
-8.12989
-8.13074
-8.13201
-8.13403
-8.13709
-8.14149
-8.14747
-8.15522
-8.16489
-8.17656
-8.19024
-8.20591
-8.22353
-8.24295
-8.26388
-8.2861
-8.3093
-8.33314
-8.35711
-8.38066
-8.40308
-8.42359
-8.44099
-8.45357
-8.45925
-8.45644
-8.44475
-8.42494
-8.39826
-8.36622
-8.32984
-8.28892
-8.24157
-8.18592
-8.12087
-8.04745
-7.96958
-7.89487
-7.83388
-7.79636
-7.78854
-7.81378
-7.87155
-7.95702
-8.06363
-8.18597
-8.31996
-8.46275
-8.61184
-8.7647
-8.91929
-9.07415
-9.22845
-9.38178
-9.53382
-9.6843
-9.83314
-9.98034
-10.126
-10.2703
-10.4136
-10.5567
-10.6991
-10.8406
-10.9807
-11.1192
-11.2554
-11.3887
-11.5181
-11.6426
-11.761
-11.8722
-11.9751
-12.0685
-12.1513
-12.2225
-12.2809
-12.3259
-12.3564
-12.372
-12.3718
-12.3555
-12.3222
-12.2721
-12.2045
-12.1197
-12.0175
-11.8982
-11.7618
-11.6093
-11.441
-11.2581
-11.0611
-10.8513
-10.6294
-10.3967
-10.1538
-9.90213
-9.64215
-9.37512
-9.10175
-8.82317
-8.54013
-8.25381
-7.96494
-7.67464
-7.3836
-7.09289
-6.80326
-6.51591
-6.23153
-5.95134
-5.67633
-5.40804
-5.14787
-4.89744
-4.65807
-4.43077
-4.21656
-4.01599
-3.82915
-3.65458
-3.48977
-3.32911
-3.16406
-2.9795
-2.75333
-2.45375
-2.04047
-1.46848
-0.697617
0.296172
1.51164
2.91831
4.45871
6.06017
7.64814
9.15821
10.5419
11.7685
12.823
13.7029
14.4151
14.9725
15.391
15.6877
15.8798
15.9833
16.0121
15.9775
15.8857
15.7448
15.5296
-7.80908
-7.82116
-7.85043
-7.8802
-7.90478
-7.92507
-7.94215
-7.95665
-7.96942
-7.9812
-7.99255
-8.00358
-8.01435
-8.02479
-8.03491
-8.04458
-8.05377
-8.06233
-8.07021
-8.07728
-8.08355
-8.08898
-8.09363
-8.09756
-8.1009
-8.10382
-8.10659
-8.10947
-8.11278
-8.11684
-8.122
-8.12856
-8.13683
-8.14705
-8.15942
-8.17406
-8.19105
-8.21036
-8.23192
-8.25555
-8.28098
-8.30782
-8.33566
-8.36401
-8.39238
-8.42007
-8.44634
-8.47024
-8.49058
-8.5057
-8.51385
-8.51341
-8.50321
-8.48296
-8.45329
-8.41526
-8.36987
-8.31718
-8.25602
-8.18423
-8.10011
-8.00444
-7.90191
-7.80077
-7.71104
-7.64427
-7.60957
-7.60942
-7.64267
-7.70593
-7.79384
-7.90103
-8.02347
-8.15786
-8.3013
-8.45103
-8.60456
-8.76021
-8.91696
-9.07426
-9.23156
-9.38843
-9.54465
-9.70017
-9.85503
-10.0094
-10.1635
-10.3174
-10.4711
-10.6245
-10.7766
-10.9273
-11.0763
-11.2226
-11.3654
-11.5038
-11.6368
-11.7632
-11.8818
-11.9918
-12.0917
-12.1807
-12.2576
-12.3213
-12.3709
-12.4057
-12.4248
-12.4277
-12.4138
-12.3826
-12.3339
-12.2674
-12.183
-12.081
-11.9614
-11.8246
-11.6713
-11.5022
-11.3181
-11.1199
-10.9086
-10.6853
-10.451
-10.2068
-9.95353
-9.69227
-9.42403
-9.14969
-8.87028
-8.58663
-8.29977
-8.01061
-7.7201
-7.42901
-7.13835
-6.84887
-6.56162
-6.2774
-5.9974
-5.72273
-5.45486
-5.19535
-4.94584
-4.70772
-4.48213
-4.26991
-4.07149
-3.88664
-3.71373
-3.54996
-3.38968
-3.22434
-3.03882
-2.81108
-2.50937
-2.09395
-1.52099
-0.752987
0.232324
1.43225
2.81616
4.32719
5.89477
7.44697
8.92263
10.2758
11.4777
12.5141
13.383
14.0903
14.6482
15.0713
15.3752
15.5756
15.6874
15.7231
15.6936
15.6049
15.4655
15.2546
-7.76514
-7.77872
-7.81269
-7.84651
-7.87361
-7.89537
-7.91312
-7.9277
-7.94024
-7.95166
-7.96255
-7.97305
-7.98326
-7.99317
-8.00279
-8.01205
-8.02091
-8.02926
-8.03708
-8.04428
-8.05087
-8.05685
-8.0623
-8.06729
-8.07198
-8.07655
-8.08124
-8.08635
-8.09224
-8.09923
-8.10772
-8.11803
-8.13051
-8.14543
-8.16302
-8.18343
-8.20676
-8.23297
-8.26194
-8.29341
-8.327
-8.36218
-8.39835
-8.43477
-8.47061
-8.50489
-8.53657
-8.5644
-8.58684
-8.60203
-8.6081
-8.60342
-8.58705
-8.55881
-8.51933
-8.46935
-8.40919
-8.33804
-8.25421
-8.15605
-8.04252
-7.91622
-7.78554
-7.66312
-7.56103
-7.48897
-7.45213
-7.44979
-7.47884
-7.53543
-7.61577
-7.71668
-7.83514
-7.96786
-8.11099
-8.26102
-8.41566
-8.57349
-8.73365
-8.89544
-9.05823
-9.22169
-9.38569
-9.55013
-9.71501
-9.8804
-10.0463
-10.2125
-10.3786
-10.5437
-10.7073
-10.869
-11.0282
-11.1845
-11.3366
-11.4838
-11.625
-11.7594
-11.8857
-12.0029
-12.1096
-12.205
-12.2877
-12.3568
-12.4112
-12.4503
-12.473
-12.4791
-12.4676
-12.4386
-12.3913
-12.3259
-12.2422
-12.1404
-12.0206
-11.8835
-11.7295
-11.5595
-11.3742
-11.1749
-10.9623
-10.7377
-10.502
-10.2564
-10.0018
-9.73936
-9.46997
-9.1948
-8.91454
-8.63034
-8.34293
-8.05349
-7.76267
-7.47155
-7.18084
-6.89166
-6.60464
-6.32104
-6.0417
-5.76806
-5.50145
-5.24352
-4.99591
-4.75984
-4.53657
-4.32644
-4.1298
-3.9458
-3.773
-3.60797
-3.44563
-3.27693
-3.08705
-2.85356
-2.54489
-2.12167
-1.5425
-0.77253
0.207424
1.39329
2.75302
4.23109
5.7591
7.26934
8.70413
10.0211
11.1932
12.2077
13.0621
13.7622
14.3186
14.7447
15.0546
15.2627
15.3822
15.4251
15.4013
15.317
15.181
14.9763
-7.73247
-7.74669
-7.78353
-7.81993
-7.84853
-7.87098
-7.88881
-7.90305
-7.91505
-7.92581
-7.93595
-7.94562
-7.95499
-7.96408
-7.97294
-7.98148
-7.98972
-7.99756
-8.005
-8.01199
-8.01857
-8.02477
-8.03067
-8.03637
-8.04204
-8.04788
-8.05418
-8.06123
-8.0694
-8.07908
-8.09067
-8.10458
-8.12117
-8.1408
-8.16375
-8.19024
-8.22036
-8.2541
-8.2913
-8.33166
-8.37468
-8.41972
-8.46593
-8.5123
-8.55773
-8.60093
-8.64049
-8.67476
-8.70196
-8.72004
-8.72706
-8.72133
-8.7019
-8.66848
-8.62144
-8.56113
-8.48743
-8.3991
-8.29437
-8.17235
-8.03412
-7.88466
-7.73443
-7.59683
-7.48282
-7.39775
-7.34383
-7.32246
-7.33338
-7.37414
-7.44129
-7.53116
-7.64055
-7.76622
-7.90422
-8.05103
-8.20464
-8.36371
-8.52706
-8.69385
-8.86342
-9.03532
-9.20917
-9.38463
-9.5614
-9.73919
-9.91765
-10.0963
-10.2745
-10.4516
-10.6266
-10.7993
-10.969
-11.1353
-11.2973
-11.454
-11.6044
-11.7475
-11.8821
-12.007
-12.1211
-12.2233
-12.3123
-12.387
-12.4465
-12.49
-12.5166
-12.5258
-12.517
-12.49
-12.4444
-12.3802
-12.2972
-12.1956
-12.0757
-11.9381
-11.7834
-11.6124
-11.4261
-11.2255
-11.0116
-10.7856
-10.5486
-10.3017
-10.046
-9.78245
-9.51216
-9.23615
-8.95527
-8.67049
-8.38275
-8.09303
-7.80213
-7.51107
-7.22064
-6.9319
-6.64567
-6.36316
-6.08531
-5.81356
-5.54927
-5.29396
-5.04912
-4.81576
-4.59479
-4.38624
-4.19007
-4.00508
-3.82993
-3.66101
-3.49358
-3.31836
-3.12033
-2.87675
-2.55594
-2.11965
-1.52936
-0.753378
0.22408
1.39653
2.73042
4.17161
5.65492
7.11749
8.50599
9.78182
10.92
11.909
12.746
13.4364
13.9893
14.4167
14.7311
14.9456
15.0721
15.1216
15.1036
15.0245
14.8931
14.6959
-7.71435
-7.72884
-7.76622
-7.80331
-7.83226
-7.85459
-7.87194
-7.88544
-7.89653
-7.90628
-7.91534
-7.92392
-7.93223
-7.94028
-7.94815
-7.95578
-7.96318
-7.97027
-7.97708
-7.98357
-7.9898
-7.99579
-8.00166
-8.0075
-8.01348
-8.01984
-8.02689
-8.03498
-8.04453
-8.056
-8.0698
-8.08643
-8.10629
-8.12986
-8.15746
-8.18941
-8.22583
-8.26674
-8.31198
-8.36119
-8.41384
-8.46912
-8.52605
-8.5834
-8.63979
-8.69365
-8.74323
-8.78658
-8.82161
-8.84608
-8.85785
-8.85509
-8.83662
-8.80172
-8.7502
-8.6818
-8.59638
-8.49334
-8.3722
-8.23386
-8.0823
-7.9235
-7.76506
-7.61491
-7.48194
-7.37383
-7.2956
-7.24981
-7.23688
-7.25558
-7.30313
-7.37503
-7.46721
-7.57702
-7.70215
-7.84001
-7.98844
-8.14554
-8.3099
-8.48037
-8.65605
-8.83597
-9.01937
-9.20548
-9.39368
-9.58333
-9.77386
-9.96463
-10.1549
-10.3435
-10.5303
-10.7144
-10.8956
-11.0731
-11.2461
-11.4134
-11.5741
-11.7267
-11.8705
-12.0038
-12.1259
-12.2351
-12.3308
-12.4114
-12.4762
-12.5242
-12.5548
-12.5671
-12.5612
-12.5361
-12.4922
-12.4289
-12.3466
-12.245
-12.125
-11.9867
-11.8313
-11.6593
-11.472
-11.2701
-11.0551
-10.8278
-10.5897
-10.3416
-10.085
-9.82052
-9.54961
-9.27295
-8.99175
-8.70669
-8.41899
-8.12937
-7.83893
-7.54837
-7.25889
-6.97122
-6.68668
-6.40609
-6.13079
-5.86195
-5.60095
-5.34911
-5.10734
-4.87658
-4.65697
-4.44852
-4.25066
-4.06239
-3.88222
-3.70694
-3.5316
-3.34683
-3.13683
-2.87863
-2.54041
-2.08619
-1.48021
-0.694901
0.282179
1.44075
2.7465
4.14651
5.5804
6.9902
8.32803
9.55859
10.6597
11.62
12.4373
13.1157
13.6631
14.0899
14.4072
14.6266
14.7589
14.8144
14.8021
14.7286
14.6025
14.4133
-7.71185
-7.72671
-7.76233
-7.79812
-7.82617
-7.84753
-7.86375
-7.87607
-7.88593
-7.89436
-7.90211
-7.90944
-7.91658
-7.92353
-7.93034
-7.93695
-7.9434
-7.94963
-7.95564
-7.96143
-7.96702
-7.97244
-7.97774
-7.98301
-7.98843
-7.99424
-8.00079
-8.00856
-8.01799
-8.02965
-8.04405
-8.06178
-8.08334
-8.10932
-8.14013
-8.17617
-8.21763
-8.26461
-8.31695
-8.3743
-8.43608
-8.5014
-8.56916
-8.63797
-8.70624
-8.77204
-8.83336
-8.88788
-8.93328
-8.96706
-8.98683
-8.99053
-8.97644
-8.94327
-8.89023
-8.817
-8.72381
-8.61138
-8.4812
-8.3356
-8.17819
-8.01394
-7.84913
-7.69048
-7.54494
-7.41951
-7.32044
-7.25131
-7.21256
-7.20288
-7.22137