/*--------------------------------*- C++ -*----------------------------------*\
| =========                 |                                                 |
| \\      /  F ield         | OpenFOAM: The Open Source CFD Toolbox           |
|  \\    /   O peration     | Version:  4.x                                   |
|   \\  /    A nd           | Web:      www.OpenFOAM.org                      |
|    \\/     M anipulation  |                                                 |
\*---------------------------------------------------------------------------*/
FoamFile
{
    version     2.0;
    format      ascii;
    class       surfaceScalarField;
    location    "200";
    object      phi;
}
// * * * * * * * * * * * * * * * * * * * * * * * * * * * * * * * * * * * * * //

dimensions      [0 3 -1 0 0 0 0];

internalField   nonuniform List<scalar> 
24170
(
2.9995e-06
1.34399e-07
2.85628e-06
1.43237e-07
2.72744e-06
1.2885e-07
2.61164e-06
1.15811e-07
2.50816e-06
1.0349e-07
2.41714e-06
9.1026e-08
2.3381e-06
7.9046e-08
2.26995e-06
6.81721e-08
2.21112e-06
5.88546e-08
2.15999e-06
5.11434e-08
2.11552e-06
4.44873e-08
2.07697e-06
3.8565e-08
2.0438e-06
3.3181e-08
2.01565e-06
2.81599e-08
1.99241e-06
2.32595e-08
1.9745e-06
1.79182e-08
1.96304e-06
1.14799e-08
-1.96571e-09
1.96502e-06
3.51607e-06
7.4774e-08
3.54805e-06
1.11277e-07
3.56396e-06
1.12948e-07
3.56692e-06
1.12869e-07
3.55967e-06
1.10744e-07
3.54512e-06
1.05586e-07
3.52557e-06
9.86066e-08
3.50273e-06
9.10401e-08
3.47811e-06
8.34932e-08
3.45301e-06
7.62651e-08
3.42808e-06
6.94372e-08
3.40373e-06
6.29289e-08
3.38027e-06
5.66556e-08
3.35796e-06
5.04874e-08
3.33703e-06
4.42023e-08
3.31773e-06
3.72301e-08
3.30027e-06
2.89699e-08
1.70487e-08
3.28127e-06
3.83292e-06
5.40493e-08
3.85099e-06
9.32122e-08
3.86587e-06
9.80775e-08
3.87884e-06
9.99121e-08
3.88945e-06
1.00139e-07
3.89758e-06
9.74559e-08
3.90338e-06
9.28201e-08
3.90703e-06
8.73965e-08
3.90884e-06
8.17018e-08
3.90914e-06
7.59694e-08
3.90829e-06
7.03045e-08
3.90653e-06
6.46962e-08
3.90409e-06
5.9099e-08
3.90118e-06
5.34079e-08
3.89795e-06
4.74395e-08
3.89442e-06
4.0762e-08
3.89025e-06
3.31561e-08
2.36851e-08
3.88361e-06
4.21655e-06
4.20616e-08
4.2293e-06
8.04714e-08
4.23941e-06
8.79747e-08
4.24847e-06
9.08599e-08
4.25669e-06
9.19256e-08
4.26397e-06
9.01853e-08
4.27035e-06
8.64547e-08
4.27591e-06
8.18507e-08
4.28072e-06
7.69058e-08
4.28487e-06
7.1835e-08
4.28847e-06
6.67196e-08
4.2916e-06
6.15733e-08
4.29435e-06
5.63568e-08
4.29679e-06
5.09871e-08
4.29892e-06
4.53196e-08
4.30059e-06
3.91005e-08
4.30148e-06
3.2273e-08
2.45954e-08
4.30058e-06
4.64599e-06
3.33799e-08
4.65704e-06
6.94236e-08
4.6658e-06
7.92233e-08
4.6736e-06
8.30656e-08
4.68082e-06
8.47047e-08
4.68738e-06
8.36338e-08
4.69328e-06
8.05651e-08
4.69861e-06
7.65269e-08
4.70345e-06
7.207e-08
4.70789e-06
6.74096e-08
4.71197e-06
6.26377e-08
4.71577e-06
5.77817e-08
4.71931e-06
5.28206e-08
4.72261e-06
4.76931e-08
4.72563e-06
4.23076e-08
4.7282e-06
3.65392e-08
4.73005e-06
3.04219e-08
2.39997e-08
4.73064e-06
5.12131e-06
2.66634e-08
5.13127e-06
5.94783e-08
5.13954e-06
7.09583e-08
5.14702e-06
7.55937e-08
5.15404e-06
7.7692e-08
5.16048e-06
7.72051e-08
5.16633e-06
7.47351e-08
5.17166e-06
7.12073e-08
5.17656e-06
6.71772e-08
5.18112e-06
6.28692e-08
5.18537e-06
5.83945e-08
5.18937e-06
5.37947e-08
5.19312e-06
4.90744e-08
5.19663e-06
4.41985e-08
5.19982e-06
3.91277e-08
5.20254e-06
3.38229e-08
5.2046e-06
2.83739e-08
2.29167e-08
5.20569e-06
5.64628e-06
2.1394e-08
5.65524e-06
5.05198e-08
5.66325e-06
6.29539e-08
5.67064e-06
6.82101e-08
5.67768e-06
7.06575e-08
5.68422e-06
7.06714e-08
5.69022e-06
6.87483e-08
5.69573e-06
6.57052e-08
5.70082e-06
6.20853e-08
5.70557e-06
5.81256e-08
5.71002e-06
5.39514e-08
5.7142e-06
4.96216e-08
5.71811e-06
4.51662e-08
5.72174e-06
4.05799e-08
5.72501e-06
3.58653e-08
5.7278e-06
3.10391e-08
5.72996e-06
2.62142e-08
2.15113e-08
5.73136e-06
4.40922e-06
1.82921e-08
4.41503e-06
4.47204e-08
4.42069e-06
5.72975e-08
4.42598e-06
6.29282e-08
4.43105e-06
6.55977e-08
4.43584e-06
6.58996e-08
4.44028e-06
6.43219e-08
4.44439e-06
6.16106e-08
4.4482e-06
5.82806e-08
4.45176e-06
5.4574e-08
4.4551e-06
5.0625e-08
4.45822e-06
4.65067e-08
4.46113e-06
4.22626e-08
4.46381e-06
3.79093e-08
4.46621e-06
3.34711e-08
4.46827e-06
2.89901e-08
4.4699e-06
2.4578e-08
2.03453e-08
4.47108e-06
5.1427e-06
1.54497e-08
5.14846e-06
3.89699e-08
5.15439e-06
5.13672e-08
5.16009e-06
5.72419e-08
5.16561e-06
6.00802e-08
5.17088e-06
6.0644e-08
5.1758e-06
5.94049e-08
5.18039e-06
5.70298e-08
5.18468e-06
5.40042e-08
5.18868e-06
5.05744e-08
5.19243e-06
4.68805e-08
5.19594e-06
4.30078e-08
5.19919e-06
3.90148e-08
5.20217e-06
3.49368e-08
5.20483e-06
3.08155e-08
5.20712e-06
2.67091e-08
5.20898e-06
2.27237e-08
1.89312e-08
5.21039e-06
5.99837e-06
1.28778e-08
6.00398e-06
3.337e-08
6.01012e-06
4.52374e-08
6.01618e-06
5.11923e-08
6.02215e-06
5.41231e-08
6.0279e-06
5.49054e-08
6.03333e-06
5.39882e-08
6.03842e-06
5.19484e-08
6.04319e-06
4.92381e-08
6.04767e-06
4.6106e-08
6.05186e-06
4.26962e-08
6.05577e-06
3.91058e-08
6.05938e-06
3.54047e-08
6.06268e-06
3.16429e-08
6.06562e-06
2.78759e-08
6.06817e-06
2.41689e-08
6.07028e-06
2.06114e-08
1.72535e-08
6.07196e-06
6.99657e-06
1.05795e-08
7.00194e-06
2.80018e-08
7.00822e-06
3.89711e-08
7.01461e-06
4.48153e-08
7.02099e-06
4.77496e-08
7.02722e-06
4.86881e-08
7.03316e-06
4.80611e-08
7.03876e-06
4.63516e-08
7.04404e-06
4.3967e-08
7.049e-06
4.11539e-08
7.05364e-06
3.80604e-08
7.05797e-06
3.47902e-08
7.06196e-06
3.14194e-08
7.06559e-06
2.80149e-08
7.06883e-06
2.46346e-08
7.07165e-06
2.13439e-08
7.07405e-06
1.82222e-08
1.52813e-08
7.07602e-06
8.16106e-06
8.53257e-09
8.16615e-06
2.29289e-08
8.17247e-06
3.26612e-08
8.17912e-06
3.81679e-08
8.18589e-06
4.1e-08
8.19257e-06
4.20148e-08
8.19901e-06
4.16258e-08
8.20514e-06
4.0229e-08
8.21094e-06
3.81764e-08
8.21639e-06
3.57029e-08
8.2215e-06
3.29571e-08
8.22625e-06
3.00428e-08
8.23063e-06
2.70473e-08
8.23461e-06
2.40343e-08
8.23818e-06
2.10696e-08
8.24131e-06
1.82108e-08
8.24401e-06
1.55202e-08
1.2995e-08
8.2463e-06
9.51956e-06
6.70457e-09
9.52433e-06
1.81724e-08
9.5306e-06
2.63967e-08
9.53746e-06
3.132e-08
9.54455e-06
3.39213e-08
9.55165e-06
3.49175e-08
9.55859e-06
3.46988e-08
9.56524e-06
3.35816e-08
9.57156e-06
3.18569e-08
9.57753e-06
2.97378e-08
9.58312e-06
2.73658e-08
9.58832e-06
2.48465e-08
9.59311e-06
2.22579e-08
9.59747e-06
1.96728e-08
9.6014e-06
1.71446e-08
9.60488e-06
1.47294e-08
9.60793e-06
1.24703e-08
1.03544e-08
9.61058e-06
1.11044e-05
5.04939e-09
1.11088e-05
1.37158e-08
1.1115e-05
2.02396e-08
1.1122e-05
2.43374e-08
1.11294e-05
2.65562e-08
1.11368e-05
2.74343e-08
1.11442e-05
2.73032e-08
1.11514e-05
2.6418e-08
1.11583e-05
2.50055e-08
1.11648e-05
2.32459e-08
1.11709e-05
2.12684e-08
1.11765e-05
1.91666e-08
1.11818e-05
1.70177e-08
1.11866e-05
1.48807e-08
1.11909e-05
1.28086e-08
1.11948e-05
1.08403e-08
1.11983e-05
9.01598e-09
7.30435e-09
1.12013e-05
1.29532e-05
3.52157e-09
1.29574e-05
9.50285e-09
1.29634e-05
1.42015e-08
1.29705e-05
1.72595e-08
1.29781e-05
1.89371e-08
1.2986e-05
1.95837e-08
1.29938e-05
1.94557e-08
1.30015e-05
1.87437e-08
1.30089e-05
1.76147e-08
1.30159e-05
1.62089e-08
1.30226e-05
1.46321e-08
1.30288e-05
1.29645e-08
1.30345e-05
1.12688e-08
1.30398e-05
9.59569e-09
1.30447e-05
7.98572e-09
1.3049e-05
6.47072e-09
1.3053e-05
5.07728e-09
3.7755e-09
1.30565e-05
1.51099e-05
2.06842e-09
1.5114e-05
5.4369e-09
1.512e-05
8.22171e-09
1.51272e-05
1.00615e-08
1.51351e-05
1.10404e-08
1.51433e-05
1.1344e-08
1.51516e-05
1.11321e-08
1.51598e-05
1.05302e-08
1.51678e-05
9.64778e-09
1.51755e-05
8.57917e-09
1.51827e-05
7.40028e-09
1.51895e-05
6.16947e-09
1.51958e-05
4.93354e-09
1.52017e-05
3.7289e-09
1.52071e-05
2.58508e-09
1.52121e-05
1.52368e-09
1.52166e-05
5.61879e-10
-3.2894e-10
1.52207e-05
1.76259e-05
6.24282e-10
1.763e-05
1.35843e-09
1.76361e-05
2.12315e-09
1.76436e-05
2.59012e-09
1.76519e-05
2.73086e-09
1.76606e-05
2.58541e-09
1.76696e-05
2.21319e-09
1.76784e-05
1.66465e-09
1.76871e-05
9.94932e-10
1.76954e-05
2.45046e-10
1.77034e-05
-5.4115e-10
1.77109e-05
-1.33632e-09
1.77179e-05
-2.10897e-09
1.77245e-05
-2.84303e-09
1.77306e-05
-3.51732e-09
1.77363e-05
-4.1243e-09
1.77415e-05
-4.65104e-09
-5.12719e-09
1.77463e-05
1.78276e-05
-7.35944e-10
1.78314e-05
-2.47658e-09
1.78372e-05
-3.63804e-09
1.78443e-05
-4.49737e-09
1.78522e-05
-5.18224e-09
1.78606e-05
-5.77839e-09
1.78691e-05
-6.33335e-09
1.78777e-05
-6.85255e-09
1.7886e-05
-7.34894e-09
1.78941e-05
-7.81356e-09
1.79018e-05
-8.25432e-09
1.79091e-05
-8.65317e-09
1.7916e-05
-9.0158e-09
1.79225e-05
-9.32316e-09
1.79286e-05
-9.58359e-09
1.79342e-05
-9.78012e-09
1.79395e-05
-9.92433e-09
-1.00256e-08
1.79444e-05
1.58826e-05
-2.00059e-09
1.58861e-05
-5.99128e-09
1.58914e-05
-8.85994e-09
1.58977e-05
-1.08432e-08
1.59048e-05
-1.22002e-08
1.59122e-05
-1.31603e-08
1.59197e-05
-1.38455e-08
1.59272e-05
-1.43286e-08
1.59345e-05
-1.46547e-08
1.59415e-05
-1.48771e-08
1.59483e-05
-1.50108e-08
1.59547e-05
-1.50835e-08
1.59608e-05
-1.50911e-08
1.59666e-05
-1.50534e-08
1.5972e-05
-1.49609e-08
1.5977e-05
-1.48299e-08
1.59817e-05
-1.46494e-08
-1.44519e-08
1.59862e-05
1.415e-05
-3.2864e-09
1.41535e-05
-9.50629e-09
1.41586e-05
-1.39382e-08
1.41646e-05
-1.68467e-08
1.41711e-05
-1.871e-08
1.41779e-05
-1.99227e-08
1.41847e-05
-2.06722e-08
1.41915e-05
-2.10695e-08
1.41981e-05
-2.12192e-08
1.42044e-05
-2.11946e-08
1.42104e-05
-2.10529e-08
1.42162e-05
-2.08196e-08
1.42216e-05
-2.05225e-08
1.42267e-05
-2.01721e-08
1.42316e-05
-1.9785e-08
1.42361e-05
-1.9362e-08
1.42404e-05
-1.89147e-08
-1.84529e-08
1.42444e-05
1.26064e-05
-4.69971e-09
1.26102e-05
-1.3267e-08
1.26154e-05
-1.91302e-08
1.26213e-05
-2.27242e-08
1.26275e-05
-2.4924e-08
1.26339e-05
-2.62796e-08
1.26402e-05
-2.70122e-08
1.26464e-05
-2.72698e-08
1.26524e-05
-2.72062e-08
1.26582e-05
-2.69338e-08
1.26637e-05
-2.65188e-08
1.26689e-05
-2.60012e-08
1.26738e-05
-2.54192e-08
1.26784e-05
-2.47891e-08
1.26828e-05
-2.41359e-08
1.26869e-05
-2.3459e-08
1.26907e-05
-2.27755e-08
-2.20895e-08
1.26944e-05
1.12315e-05
-6.35163e-09
1.12357e-05
-1.74992e-08
1.12412e-05
-2.45898e-08
1.1247e-05
-2.85901e-08
1.12531e-05
-3.09535e-08
1.12591e-05
-3.23502e-08
1.12651e-05
-3.29764e-08
1.12709e-05
-3.30361e-08
1.12764e-05
-3.27345e-08
1.12817e-05
-3.22019e-08
1.12867e-05
-3.15131e-08
1.12914e-05
-3.0723e-08
1.12959e-05
-2.98673e-08
1.13001e-05
-2.89845e-08
1.13041e-05
-2.80819e-08
1.13078e-05
-2.71851e-08
1.13113e-05
-2.6285e-08
-2.54101e-08
1.13146e-05
1.00067e-05
-8.40185e-09
1.00116e-05
-2.2411e-08
1.00174e-05
-3.03973e-08
1.00233e-05
-3.4469e-08
1.00292e-05
-3.68586e-08
1.0035e-05
-3.8196e-08
1.00407e-05
-3.86382e-08
1.00461e-05
-3.84501e-08
1.00513e-05
-3.78853e-08
1.00561e-05
-3.70882e-08
1.00608e-05
-3.61292e-08
1.00651e-05
-3.50694e-08
1.00692e-05
-3.39566e-08
1.00731e-05
-3.28252e-08
1.00767e-05
-3.17008e-08
1.00801e-05
-3.05907e-08
1.00833e-05
-2.95094e-08
-2.84519e-08
1.00864e-05
8.91578e-06
-1.10791e-08
8.92155e-06
-2.81919e-08
8.92771e-06
-3.65511e-08
8.93361e-06
-4.03786e-08
8.93944e-06
-4.26904e-08
8.94512e-06
-4.3879e-08
8.95055e-06
-4.40584e-08
8.95569e-06
-4.3589e-08
8.96056e-06
-4.27557e-08
8.96516e-06
-4.16879e-08
8.96949e-06
-4.04592e-08
8.97356e-06
-3.9132e-08
8.97737e-06
-3.77644e-08
8.98095e-06
-3.63947e-08
8.98431e-06
-3.50511e-08
8.98747e-06
-3.37472e-08
8.99045e-06
-3.24873e-08
-3.12761e-08
8.99328e-06
7.9443e-06
-1.47104e-08
7.95111e-06
-3.50031e-08
7.95758e-06
-4.30324e-08
7.96357e-06
-4.63656e-08
7.96942e-06
-4.85449e-08
7.97504e-06
-4.94998e-08
7.98034e-06
-4.93572e-08
7.98532e-06
-4.8577e-08
7.99002e-06
-4.74562e-08
7.99445e-06
-4.61103e-08
7.99859e-06
-4.46011e-08
8.00246e-06
-4.30009e-08
8.00607e-06
-4.13693e-08
8.00943e-06
-3.97559e-08
8.01257e-06
-3.81911e-08
8.01552e-06
-3.66931e-08
8.01831e-06
-3.52646e-08
-3.38931e-08
8.02093e-06
7.07934e-06
-1.972e-08
7.08742e-06
-4.30824e-08
7.09438e-06
-5.00011e-08
7.1007e-06
-5.26883e-08
7.10679e-06
-5.46391e-08
7.11255e-06
-5.52574e-08
7.11791e-06
-5.47226e-08
7.12292e-06
-5.35946e-08
7.12762e-06
-5.21552e-08
7.13201e-06
-5.04979e-08
7.13608e-06
-4.86793e-08
7.13986e-06
-4.67749e-08
7.14334e-06
-4.48575e-08
7.14656e-06
-4.29738e-08
7.14954e-06
-4.11717e-08
7.15232e-06
-3.94662e-08
7.15492e-06
-3.78658e-08
-3.63469e-08
7.15738e-06
6.30984e-06
-2.70526e-08
6.3198e-06
-5.30419e-08
6.32796e-06
-5.81619e-08
6.33535e-06
-6.00865e-08
6.34229e-06
-6.15794e-08
6.34868e-06
-6.16465e-08
6.35453e-06
-6.05761e-08
6.35992e-06
-5.89849e-08
6.36489e-06
-5.71364e-08
6.36946e-06
-5.50734e-08
6.37364e-06
-5.28572e-08
6.37743e-06
-5.05695e-08
6.38086e-06
-4.82795e-08
6.38394e-06
-4.606e-08
6.38671e-06
-4.39492e-08
6.38923e-06
-4.19838e-08
6.39153e-06
-4.01654e-08
-3.84407e-08
6.39363e-06
5.62876e-06
-4.0912e-08
5.64314e-06
-6.74248e-08
5.65494e-06
-6.9969e-08
5.66558e-06
-7.07315e-08
5.67511e-06
-7.11193e-08
5.68345e-06
-6.99902e-08
5.69071e-06
-6.78364e-08
5.69703e-06
-6.53075e-08
5.70249e-06
-6.25964e-08
5.70712e-06
-5.97134e-08
5.71098e-06
-5.67177e-08
5.7141e-06
-5.36934e-08
5.71654e-06
-5.07253e-08
5.71837e-06
-4.78861e-08
5.71964e-06
-4.52322e-08
5.72048e-06
-4.28245e-08
5.72099e-06
-4.06749e-08
-3.89049e-08
5.72146e-06
5.04611e-06
-8.47146e-08
5.07572e-06
-9.70395e-08
5.09622e-06
-9.04796e-08
5.11077e-06
-8.52838e-08
5.11989e-06
-8.02445e-08
5.12448e-06
-7.45858e-08
5.12547e-06
-6.88306e-08
5.12359e-06
-6.34342e-08
5.11937e-06
-5.8387e-08
5.11324e-06
-5.35857e-08
5.10555e-06
-4.90302e-08
5.09662e-06
-4.47635e-08
5.08672e-06
-4.08258e-08
5.07608e-06
-3.7254e-08
5.06499e-06
-3.41532e-08
5.05378e-06
-3.1614e-08
5.04268e-06
-2.95794e-08
-2.83802e-08
5.03215e-06
4.37183e-06
4.27479e-06
4.18431e-06
4.09903e-06
4.01878e-06
3.9442e-06
3.87537e-06
3.81193e-06
3.75354e-06
3.69996e-06
3.65093e-06
3.60616e-06
3.56534e-06
3.52808e-06
3.49393e-06
3.46231e-06
3.43273e-06
3.40435e-06
-1.88575e-08
1.91124e-08
-4.15977e-08
2.31156e-08
-5.02848e-08
9.15268e-09
-3.14576e-08
-1.85638e-08
1.38501e-08
-4.48878e-08
7.54162e-08
-6.14115e-08
1.43971e-07
-6.82419e-08
2.13206e-07
-6.91424e-08
2.80507e-07
-6.70285e-08
3.43866e-07
-6.32707e-08
4.02686e-07
-5.85447e-08
4.56162e-07
-5.33697e-08
5.04537e-07
-4.8099e-08
5.47595e-07
-4.29371e-08
5.85815e-07
-3.79289e-08
6.19063e-07
-3.31098e-08
6.47855e-07
-2.8496e-08
6.72129e-07
-2.41154e-08
6.92383e-07
-1.9942e-08
7.08511e-07
-1.59397e-08
7.2098e-07
-1.21226e-08
7.29647e-07
-8.44708e-09
7.34718e-07
-4.70598e-09
7.35779e-07
-8.1045e-10
7.32911e-07
3.26356e-09
7.25951e-07
7.23723e-09
7.15496e-07
1.08629e-08
7.01801e-07
1.4009e-08
6.85626e-07
1.66093e-08
6.67321e-07
1.86486e-08
6.4772e-07
2.00564e-08
6.27384e-07
2.06912e-08
6.0726e-07
2.05819e-08
5.87864e-07
1.97515e-08
5.7002e-07
1.83038e-08
5.54122e-07
1.62543e-08
5.40858e-07
1.37293e-08
5.30349e-07
1.08852e-08
5.22842e-07
7.99652e-09
5.17967e-07
5.29419e-09
5.15451e-07
3.056e-09
5.14513e-07
1.43845e-09
5.14531e-07
5.72932e-10
5.14679e-07
4.5781e-10
5.14301e-07
1.03463e-09
5.12807e-07
2.18943e-09
5.09611e-07
3.87983e-09
5.0438e-07
5.97806e-09
4.96602e-07
8.4544e-09
4.86075e-07
1.12872e-08
4.72306e-07
1.44312e-08
4.5498e-07
1.80663e-08
4.33264e-07
2.23388e-08
4.06642e-07
2.73305e-08
3.74405e-07
3.28449e-08
3.36663e-07
3.84394e-08
2.94093e-07
4.3179e-08
2.48817e-07
4.60245e-08
2.03909e-07
4.56108e-08
1.64352e-07
4.04918e-08
1.3535e-07
2.99128e-08
1.22455e-07
1.4153e-08
1.26836e-07
-3.23949e-09
1.44882e-07
-1.65781e-08
1.68783e-07
-2.28416e-08
1.9316e-07
-2.30715e-08
2.13238e-07
-1.91749e-08
2.28085e-07
-1.37013e-08
2.36388e-07
-7.4646e-09
2.38208e-07
-6.62835e-10
2.32207e-07
6.66783e-09
2.19382e-07
1.42311e-08
1.88755e-07
3.06907e-08
1.28676e-07
6.18661e-08
2.16109e-08
1.06575e-07
-1.38247e-07
1.6154e-07
-3.59167e-07
2.20074e-07
-6.26722e-07
2.68393e-07
-9.32832e-07
3.05274e-07
-1.25839e-06
3.25804e-07
-1.58853e-06
3.29328e-07
-1.9066e-06
3.17994e-07
-2.20263e-06
2.95264e-07
-2.46874e-06
2.65937e-07
-2.70319e-06
2.3383e-07
-2.90572e-06
2.02385e-07
-3.07964e-06
1.73492e-07
-3.22812e-06
1.48256e-07
-3.35545e-06
1.26857e-07
-3.46517e-06
1.09342e-07
-3.56066e-06
9.53438e-08
-3.64482e-06
8.43814e-08
-3.72025e-06
7.57312e-08
-3.78868e-06
6.87804e-08
-3.85157e-06
6.31363e-08
-3.90995e-06
5.85573e-08
-3.96475e-06
5.48007e-08
-4.01635e-06
5.14564e-08
-4.06504e-06
4.83961e-08
-4.11112e-06
4.5663e-08
-4.15483e-06
4.31985e-08
-4.19631e-06
4.08875e-08
-4.23549e-06
3.85593e-08
-4.27245e-06
3.62895e-08
-4.30711e-06
3.40038e-08
-4.33944e-06
3.16266e-08
-4.3693e-06
2.92232e-08
-4.39671e-06
2.67204e-08
-4.42137e-06
2.40661e-08
-4.44331e-06
2.13037e-08
-4.46228e-06
1.84397e-08
-4.47816e-06
1.53042e-08
-4.49065e-06
1.20334e-08
-4.49998e-06
8.84121e-09
-4.50606e-06
5.70418e-09
-4.50914e-06
2.6615e-09
-4.50973e-06
2.96377e-10
-4.50825e-06
-1.82276e-09
-4.50462e-06
-3.84575e-09
-4.49918e-06
-5.71005e-09
-4.49184e-06
-7.48714e-09
-4.48274e-06
-9.29699e-09
-4.47198e-06
-1.08379e-08
-4.45989e-06
-1.22323e-08
-4.44641e-06
-1.34987e-08
-4.43187e-06
-1.46174e-08
-4.41622e-06
-1.56127e-08
-4.40016e-06
-1.60663e-08
-4.3837e-06
-1.63698e-08
-4.36671e-06
-1.69187e-08
-4.34924e-06
-1.7314e-08
-4.33117e-06
-1.79595e-08
-4.31278e-06
-1.83039e-08
-4.29455e-06
-1.82682e-08
-4.27639e-06
-1.82032e-08
-4.25897e-06
-1.75051e-08
-4.24258e-06
-1.63698e-08
-4.22829e-06
-1.43259e-08
-4.21677e-06
-1.16032e-08
-4.20846e-06
-8.59033e-09
-4.2039e-06
-4.8084e-09
-4.20391e-06
-2.43417e-10
-4.20887e-06
4.98743e-09
-4.21831e-06
9.59263e-09
-4.23037e-06
1.25371e-08
-4.24273e-06
1.30412e-08
-4.25283e-06
1.11813e-08
-4.25788e-06
6.48018e-09
-4.25518e-06
-9.23741e-10
-4.2431e-06
-1.00143e-08
-4.21948e-06
-2.13612e-08
-4.18217e-06
-3.4808e-08
-4.13058e-06
-4.89942e-08
-4.06468e-06
-6.30685e-08
-3.98543e-06
-7.64758e-08
-3.89361e-06
-8.87469e-08
-3.78993e-06
-1.007e-07
-3.67315e-06
-1.13555e-07
-3.54026e-06
-1.29793e-07
-3.38589e-06
-1.51272e-07
-3.20384e-06
-1.79167e-07
-2.98815e-06
-2.13079e-07
-2.73408e-06
-2.51701e-07
-2.44201e-06
-2.89927e-07
-2.11755e-06
-3.22456e-07
-1.76881e-06
-3.46791e-07
-1.40628e-06
-3.60625e-07
-1.03561e-06
-3.68683e-07
-6.35554e-07
-3.98159e-07
-1.81131e-07
-4.52507e-07
2.92919e-07
-4.72545e-07
7.36742e-07
-4.4247e-07
1.13583e-06
-3.98036e-07
1.49035e-06
-3.53624e-07
1.80291e-06
-3.11903e-07
2.07514e-06
-2.71694e-07
2.3053e-06
-2.29777e-07
2.49036e-06
-1.84724e-07
2.60796e-06
-1.17319e-07
1.12727e-08
2.59698e-06
2.45993e-09
1.71369e-08
1.60275e-08
1.02585e-08
5.95554e-08
-3.38948e-08
1.22034e-07
-8.08373e-08
1.87185e-07
-1.09856e-07
2.47274e-07
-1.21413e-07
3.01267e-07
-1.22111e-07
3.49452e-07
-1.17265e-07
3.92441e-07
-1.09906e-07
4.30761e-07
-1.0153e-07
4.6515e-07
-9.28158e-08
4.95936e-07
-8.40865e-08
5.23478e-07
-7.55135e-08
5.47809e-07
-6.71914e-08
5.69174e-07
-5.91547e-08
5.87576e-07
-5.14184e-08
6.03212e-07
-4.3979e-08
6.16033e-07
-3.68297e-08
6.26214e-07
-2.99481e-08
6.33733e-07
-2.33238e-08
6.38765e-07
-1.69528e-08
6.41314e-07
-1.08407e-08
6.41811e-07
-4.97797e-09
6.40536e-07
6.44928e-10
6.37956e-07
6.08906e-09
6.34032e-07
1.13643e-08
6.28755e-07
1.64047e-08
6.21895e-07
2.10952e-08
6.13475e-07
2.53216e-08
6.03421e-07
2.8953e-08
5.91916e-07
3.18685e-08
5.78926e-07
3.39479e-08
5.64733e-07
3.50942e-08
5.49503e-07
3.52528e-08
5.33647e-07
3.4485e-08
5.17326e-07
3.28544e-08
5.00878e-07
3.05131e-08
4.84395e-07
2.76603e-08
4.6823e-07
2.45179e-08
4.52564e-07
2.12905e-08
4.37811e-07
1.81903e-08
4.24283e-07
1.53462e-08
4.12371e-07
1.29076e-08
4.02187e-07
1.10714e-08
3.93645e-07
1.00334e-08
3.86407e-07
9.90995e-09
3.80007e-07
1.07585e-08
3.73967e-07
1.25279e-08
3.6773e-07
1.51815e-08
3.60884e-07
1.8665e-08
3.52869e-07
2.29406e-08
3.43409e-07
2.80617e-08
3.32232e-07
3.40095e-08
3.19343e-07
4.07625e-08
3.04716e-07
4.79779e-08
2.88494e-07
5.52216e-08
2.70671e-07
6.154e-08
2.5155e-07
6.57685e-08
2.31444e-07
6.63476e-08
2.11333e-07
6.13809e-08
1.92559e-07
4.95059e-08
1.76713e-07
3.10423e-08
1.63874e-07
1.06472e-08
1.52105e-07
-3.61106e-09
1.3839e-07
-8.13222e-09
1.21388e-07
-4.99318e-09
9.87807e-08
4.2573e-09
6.66507e-08
1.95072e-08
1.90933e-08
4.07844e-08
-4.96589e-08
6.93267e-08
-1.49939e-07
1.0757e-07
-2.91445e-07
1.56631e-07
-4.82901e-07
2.22451e-07
-7.26566e-07
3.05967e-07
-1.01916e-06
3.99306e-07
-1.34852e-06
4.91137e-07
-1.69699e-06
5.68572e-07
-2.0479e-06
6.19416e-07
-2.38029e-06
6.37586e-07
-2.67701e-06
6.22487e-07
-2.92952e-06
5.81612e-07
-3.13619e-06
5.24479e-07
-3.3012e-06
4.59967e-07
-3.43089e-06
3.9539e-07
-3.53306e-06
3.35708e-07
-3.61449e-06
2.83609e-07
-3.68112e-06
2.39897e-07
-3.73738e-06
2.04249e-07
-3.78652e-06
1.75706e-07
-3.8307e-06
1.53134e-07
-3.87088e-06
1.35469e-07
-3.90792e-06
1.21556e-07
-3.94254e-06
1.10607e-07
-3.97546e-06
1.01927e-07
-4.007e-06
9.48664e-08
-4.03742e-06
8.90583e-08
-4.06669e-06
8.40416e-08
-4.09479e-06
7.93923e-08
-4.12169e-06
7.50273e-08
-4.14731e-06
7.09122e-08
-4.17154e-06
6.69861e-08
-4.19442e-06
6.32693e-08
-4.21594e-06
5.95343e-08
-4.23595e-06
5.57535e-08
-4.25438e-06
5.1844e-08
-4.27115e-06
4.78287e-08
-4.2863e-06
4.37942e-08
-4.2998e-06
3.96783e-08
-4.31172e-06
3.54377e-08
-4.32191e-06
3.09979e-08
-4.33044e-06
2.64735e-08
-4.33739e-06
2.18144e-08
-4.34277e-06
1.6985e-08
-4.34665e-06
1.23397e-08
-4.34916e-06
7.84721e-09
-4.3503e-06
3.4993e-09
-4.34971e-06
-5.95894e-10
-4.34709e-06
-4.68464e-09
-4.34256e-06
-8.60843e-09
-4.33603e-06
-1.24177e-08
-4.32765e-06
-1.60441e-08
-4.3177e-06
-1.9371e-08
-4.30642e-06
-2.22314e-08
-4.29386e-06
-2.48701e-08
-4.28013e-06
-2.72892e-08
-4.26533e-06
-2.94427e-08
-4.24936e-06
-3.15928e-08
-4.23248e-06
-3.29225e-08
-4.21493e-06
-3.38639e-08
-4.19675e-06
-3.50058e-08
-4.17787e-06
-3.60757e-08
-4.15848e-06
-3.72361e-08
-4.1388e-06
-3.79352e-08
-4.11895e-06
-3.8148e-08
-4.09937e-06
-3.78659e-08
-4.08015e-06
-3.67685e-08
-4.06166e-06
-3.4868e-08
-4.04454e-06
-3.14763e-08
-4.02946e-06
-2.6815e-08
-4.01691e-06
-2.13835e-08
-4.00711e-06
-1.48798e-08
-3.99983e-06
-7.71378e-09
-3.99419e-06
-6.54442e-10
-3.98974e-06
5.32288e-09
-3.98635e-06
9.55173e-09
-3.98375e-06
1.11237e-08
-3.98107e-06
9.47742e-09
-3.97684e-06
3.63641e-09
-3.96885e-06
-7.29813e-09
-3.95418e-06
-2.27854e-08
-3.93081e-06
-4.27061e-08
-3.897e-06
-6.63942e-08
-3.85111e-06
-9.25736e-08
-3.79189e-06
-1.19844e-07
-3.71851e-06
-1.4735e-07
-3.62991e-06
-1.74682e-07
-3.52466e-06
-2.03225e-07
-3.39971e-06
-2.35575e-07
-3.25079e-06
-2.75846e-07
-3.0719e-06
-3.27248e-07
-2.85716e-06
-3.9126e-07
-2.60197e-06
-4.658e-07
-2.30515e-06
-5.46428e-07
-1.96866e-06
-6.24468e-07
-1.59635e-06
-6.9306e-07
-1.19324e-06
-7.48205e-07
-7.56022e-07
-7.96315e-07
-2.77689e-07
-8.45575e-07
2.10492e-07
-8.8518e-07
6.58525e-07
-8.99452e-07
1.06473e-06
-8.77824e-07
1.44657e-06
-8.23392e-07
1.80324e-06
-7.53952e-07
2.13035e-06
-6.80042e-07
2.42505e-06
-6.06085e-07
2.68599e-06
-5.32184e-07
2.91237e-06
-4.55846e-07
3.09989e-06
-3.71939e-07
3.24718e-06
-2.64354e-07
-9.40577e-08
3.3528e-06
7.81965e-09
9.66156e-09
6.08598e-08
-4.2358e-08
1.37016e-07
-1.09813e-07
2.06643e-07
-1.50351e-07
2.6084e-07
-1.63943e-07
3.0218e-07
-1.62696e-07
3.3521e-07
-1.55064e-07
3.63029e-07
-1.45042e-07
3.87437e-07
-1.34245e-07
4.09234e-07
-1.23288e-07
4.28902e-07
-1.12415e-07
4.46595e-07
-1.01735e-07
4.62452e-07
-9.12975e-08
4.76427e-07
-8.11188e-08
4.88552e-07
-7.1199e-08
4.98723e-07
-6.15328e-08
5.06944e-07
-5.21109e-08
5.13108e-07
-4.29244e-08
5.17227e-07
-3.39627e-08
5.19219e-07
-2.52301e-08
5.19131e-07
-1.67435e-08
5.1692e-07
-8.52956e-09
5.12692e-07
-6.1714e-10
5.0648e-07
6.9708e-09
4.98489e-07
1.42238e-08
4.88855e-07
2.11188e-08
4.77822e-07
2.75925e-08
4.65503e-07
3.35496e-08
4.52115e-07
3.88736e-08
4.37786e-07
4.34296e-08
4.22742e-07
4.70911e-08
4.07106e-07
4.97396e-08
3.91109e-07
5.12759e-08
3.74873e-07
5.1652e-08
3.58641e-07
5.09074e-08
3.42557e-07
4.91077e-08
3.26889e-07
4.63777e-08
3.11834e-07
4.28996e-08
2.97687e-07
3.88682e-08
2.84663e-07
3.4513e-08
2.72988e-07
3.0091e-08
2.62722e-07
2.58377e-08
2.53864e-07
2.20106e-08
2.46305e-07
1.88902e-08
2.39869e-07
1.67403e-08
2.34292e-07
1.57737e-08
2.29213e-07
1.61262e-08
2.2422e-07
1.78256e-08
2.18839e-07
2.08626e-08
2.12633e-07
2.51876e-08
2.0514e-07
3.07411e-08
1.96044e-07
3.74806e-08
1.85082e-07
4.5285e-08
1.72239e-07
5.39375e-08
1.57643e-07
6.28997e-08
1.41766e-07
7.1452e-08
1.25115e-07
7.85502e-08
1.08327e-07
8.29664e-08
9.16767e-08
8.34394e-08
7.48367e-08
7.87481e-08
5.64224e-08
6.8494e-08
3.44076e-08
5.37405e-08
7.20147e-09
3.85325e-08
-2.51405e-08
2.94953e-08
-6.4439e-08
3.18403e-08
-1.1665e-07
4.79441e-08
-1.88496e-07
7.66739e-08
-2.83966e-07
1.15506e-07
-4.0769e-07
1.64915e-07
-5.65713e-07
2.27698e-07
-7.65255e-07
3.0738e-07
-1.01253e-06
4.04128e-07
-1.30337e-06
5.13453e-07
-1.62255e-06
6.25325e-07
-1.94861e-06
7.25495e-07
-2.25748e-06
8.00142e-07
-2.52695e-06
8.38145e-07
-2.7447e-06
8.37241e-07
-2.90994e-06
8.02836e-07
-3.03074e-06
7.43258e-07
-3.11787e-06
6.68643e-07
-3.18232e-06
5.88778e-07
-3.23327e-06
5.10722e-07
-3.27709e-06
4.39004e-07
-3.3176e-06
3.76009e-07
-3.35664e-06
3.22476e-07
-3.39498e-06
2.78052e-07
-3.43273e-06
2.41811e-07
-3.46989e-06
2.1253e-07
-3.50618e-06
1.8917e-07
-3.54135e-06
1.70551e-07
-3.57541e-06
1.55681e-07
-3.60842e-06
1.43769e-07
-3.64038e-06
1.34012e-07
-3.67129e-06
1.25863e-07
-3.70121e-06
1.18981e-07
-3.73016e-06
1.12921e-07
-3.75815e-06
1.07212e-07
-3.78522e-06
1.01841e-07
-3.81127e-06
9.66375e-08
-3.83608e-06
9.14212e-08
-3.85961e-06
8.63828e-08
-3.88181e-06
8.12839e-08
-3.90258e-06
7.60629e-08
-3.92186e-06
7.06414e-08
-3.93952e-06
6.50354e-08
-3.95558e-06
5.93676e-08
-3.96989e-06
5.35608e-08
-3.98251e-06
4.76037e-08
-3.99332e-06
4.14041e-08
-4.00234e-06
3.50877e-08
-4.00952e-06
2.86443e-08
-4.01486e-06
2.1966e-08
-4.01835e-06
1.5532e-08
-4.01999e-06
9.18429e-09
-4.01962e-06
2.88823e-09
-4.01725e-06
-3.20995e-09
-4.01287e-06
-9.24719e-09
-4.00667e-06
-1.50101e-08
-3.99864e-06
-2.05741e-08
-3.98896e-06
-2.58681e-08
-3.97771e-06
-3.06977e-08
-3.96507e-06
-3.49694e-08
-3.95108e-06
-3.89003e-08
-3.93595e-06
-4.24624e-08
-3.91983e-06
-4.55628e-08
-3.90279e-06
-4.86329e-08
-3.88494e-06
-5.07152e-08
-3.86644e-06
-5.23083e-08
-3.84733e-06
-5.39982e-08
-3.82775e-06
-5.55411e-08
-3.80773e-06
-5.71417e-08
-3.78733e-06
-5.83025e-08
-3.76668e-06
-5.8801e-08
-3.74609e-06
-5.84956e-08
-3.72578e-06
-5.70819e-08
-3.70616e-06
-5.44974e-08
-3.68734e-06
-5.03043e-08
-3.66962e-06
-4.46616e-08
-3.65325e-06
-3.79422e-08
-3.63845e-06
-2.99178e-08
-3.62514e-06
-2.11276e-08
-3.61349e-06
-1.22966e-08
-3.60365e-06
-4.28083e-09
-3.59571e-06
2.03596e-09
-3.5895e-06
5.55767e-09
-3.58421e-06
5.08746e-09
-3.5789e-06
-5.8375e-10
-3.57241e-06
-1.25018e-08
-3.56297e-06
-3.08803e-08
-3.54846e-06
-5.57513e-08
-3.52656e-06
-8.68041e-08
-3.49448e-06
-1.23066e-07
-3.44937e-06
-1.63369e-07
-3.38825e-06
-2.06841e-07
-3.30801e-06
-2.53276e-07
-3.2053e-06
-3.04256e-07
-3.07611e-06
-3.63085e-07
-2.91558e-06
-4.34707e-07
-2.71778e-06
-5.23462e-07
-2.47753e-06
-6.29965e-07
-2.19258e-06
-7.49352e-07
-1.86444e-06
-8.73213e-07
-1.49572e-06
-9.91875e-07
-1.0911e-06
-1.09632e-06
-6.50809e-07
-1.18709e-06
-1.80651e-07
-1.26521e-06
2.91279e-07
-1.31635e-06
7.39318e-07
-1.33228e-06
1.15486e-06
-1.31416e-06
1.54029e-06
-1.26258e-06
1.90052e-06
-1.18303e-06
2.2349e-06
-1.08785e-06
2.54138e-06
-9.86103e-07
2.81885e-06
-8.83236e-07
3.06669e-06
-7.79743e-07
3.28411e-06
-6.7306e-07
3.4687e-06
-5.5632e-07
3.6208e-06
-4.16278e-07
-2.24649e-07
3.75158e-06
2.99917e-08
-2.01186e-08
1.09839e-07
-1.21981e-07
1.80791e-07
-1.80622e-07
2.27221e-07
-1.96706e-07
2.56969e-07
-1.93616e-07
2.78443e-07
-1.84129e-07
2.96138e-07
-1.72704e-07
3.1183e-07
-1.60703e-07
3.262e-07
-1.48567e-07
3.39411e-07
-1.36469e-07
3.51535e-07
-1.24489e-07
3.62493e-07
-1.12662e-07
3.72245e-07
-1.00996e-07
3.80649e-07
-8.94869e-08
3.87632e-07
-7.81245e-08
3.93044e-07
-6.69027e-08
3.96823e-07
-5.58225e-08
3.98837e-07
-4.48858e-08
3.99045e-07
-3.4094e-08
3.97349e-07
-2.34706e-08
3.93749e-07
-1.30551e-08
3.88189e-07
-2.89627e-09
3.80714e-07
6.95418e-09
3.71325e-07
1.64379e-08
3.60156e-07
2.54922e-08
3.47321e-07
3.40397e-08
3.33035e-07
4.19808e-08
3.17473e-07
4.92e-08
3.00897e-07
5.55601e-08
2.83515e-07
6.09053e-08
2.65625e-07
6.50931e-08
2.47475e-07
6.79905e-08
2.29375e-07
6.94954e-08
2.11565e-07
6.95673e-08
1.94357e-07
6.82377e-08
1.77981e-07
6.55975e-08
1.62679e-07
6.18094e-08
1.48593e-07
5.71033e-08
1.35868e-07
5.1734e-08
1.2453e-07
4.59881e-08
1.14592e-07
4.01802e-08
1.05969e-07
3.46208e-08
9.85446e-08
2.96114e-08
9.21547e-08
2.54644e-08
8.66034e-08
2.24871e-08
8.16288e-08
2.0957e-08
7.68948e-08
2.10712e-08
7.20366e-08
2.29078e-08
6.66556e-08
2.64647e-08
6.03776e-08
3.16999e-08
5.27995e-08
3.85473e-08
4.36018e-08
4.69185e-08
3.24881e-08
5.66315e-08
1.93455e-08
6.73265e-08
4.17514e-09
7.83107e-08
-1.27569e-08
8.86437e-08
-3.11397e-08
9.71982e-08
-5.06569e-08
1.02785e-07
-7.13162e-08
1.04419e-07
-9.38129e-08
1.01622e-07
-1.20035e-07
9.51091e-08
-1.53313e-07
8.74612e-08
-1.98221e-07
8.38707e-08
-2.59101e-07
9.08155e-08
-3.39358e-07
1.12485e-07
-4.40489e-07
1.49429e-07
-5.64411e-07
2.00888e-07
-7.15774e-07
2.67123e-07
-9.00696e-07
3.50051e-07
-1.12317e-06
4.5036e-07
-1.38142e-06
5.65794e-07
-1.66578e-06
6.88645e-07
-1.95774e-06
8.05552e-07
-2.23233e-06
9.00057e-07
-2.46534e-06
9.58644e-07
-2.64208e-06
9.77008e-07
-2.76235e-06
9.58524e-07
-2.83587e-06
9.10839e-07
-2.87683e-06
8.43824e-07
-2.89961e-06
7.6602e-07
-2.91542e-06
6.84377e-07
-2.93125e-06
6.04482e-07
-2.95062e-06
5.29936e-07
-2.97457e-06
4.62781e-07
-3.00267e-06
4.03952e-07
-3.03391e-06
3.53551e-07
-3.06716e-06
3.11146e-07
-3.10149e-06
2.75945e-07
-3.13618e-06
2.46994e-07
-3.17071e-06
2.23389e-07
-3.20454e-06
2.04257e-07
-3.23752e-06
1.88667e-07
-3.26965e-06
1.75943e-07
-3.30087e-06
1.6527e-07
-3.3312e-06
1.5618e-07
-3.36063e-06
1.48355e-07
-3.38916e-06
1.41323e-07
-3.41676e-06
1.34619e-07
-3.44341e-06
1.28234e-07
-3.469e-06
1.2193e-07
-3.49342e-06
1.15499e-07
-3.51657e-06
1.09155e-07
-3.5383e-06
1.02634e-07
-3.55854e-06
9.58941e-08
-3.57717e-06
8.8869e-08
-3.59412e-06
8.15711e-08
-3.60929e-06
7.41413e-08
-3.62263e-06
6.65087e-08
-3.63408e-06
5.86819e-08
-3.64362e-06
5.05925e-08
-3.65125e-06
4.23871e-08
-3.65698e-06
3.4057e-08
-3.66074e-06
2.54433e-08
-3.6625e-06
1.70272e-08
-3.66226e-06
8.69835e-09
-3.66003e-06
4.41275e-10
-3.65585e-06
-7.58067e-09
-3.64976e-06