/*--------------------------------*- C++ -*----------------------------------*\
| =========                 |                                                 |
| \\      /  F ield         | OpenFOAM: The Open Source CFD Toolbox           |
|  \\    /   O peration     | Version:  4.x                                   |
|   \\  /    A nd           | Web:      www.OpenFOAM.org                      |
|    \\/     M anipulation  |                                                 |
\*---------------------------------------------------------------------------*/
FoamFile
{
    version     2.0;
    format      ascii;
    class       volVectorField;
    location    "200";
    object      U;
}
// * * * * * * * * * * * * * * * * * * * * * * * * * * * * * * * * * * * * * //

dimensions      [0 1 -1 0 0 0 0];

internalField   nonuniform List<vector> 
12225
(
(9.76655 0.0433752 0)
(9.33128 0.0790699 0)
(8.91126 0.0855748 0)
(8.51488 0.0823475 0)
(8.16057 0.0755731 0)
(7.85045 0.067174 0)
(7.58027 0.058286 0)
(7.34623 0.0496263 0)
(7.14473 0.0418805 0)
(6.97011 0.0354108 0)
(6.81779 0.0299718 0)
(6.68589 0.0252912 0)
(6.5715 0.0210916 0)
(6.47395 0.0172289 0)
(6.39171 0.0134372 0)
(6.32525 0.00922203 0)
(6.27774 0.00459623 0)
(6.24483 -0.00736989 0)
(10.0851 0.05861 0)
(10.227 0.0922646 0)
(10.3037 0.091985 0)
(10.3255 0.0886245 0)
(10.3148 0.085944 0)
(10.2818 0.0825728 0)
(10.2319 0.0784379 0)
(10.1696 0.0740265 0)
(10.0998 0.0695861 0)
(10.0271 0.0652981 0)
(9.95454 0.0612709 0)
(9.88286 0.057304 0)
(9.81365 0.0532818 0)
(9.74709 0.0490298 0)
(9.68451 0.0443402 0)
(9.62576 0.0385696 0)
(9.57252 0.0308102 0)
(9.52002 0.0170284 0)
(10.0163 0.0422906 0)
(10.0771 0.0649644 0)
(10.1247 0.0679992 0)
(10.1604 0.0721159 0)
(10.1896 0.076183 0)
(10.2143 0.0779254 0)
(10.2329 0.0776308 0)
(10.2454 0.0762098 0)
(10.2522 0.0741857 0)
(10.2548 0.0718294 0)
(10.2539 0.0691379 0)
(10.2504 0.0661191 0)
(10.2447 0.0627453 0)
(10.2376 0.0589246 0)
(10.2295 0.0544199 0)
(10.2205 0.0485831 0)
(10.2106 0.0407674 0)
(10.197 0.0281493 0)
(10.0075 0.0302973 0)
(10.042 0.0551355 0)
(10.0726 0.0622574 0)
(10.0951 0.0673527 0)
(10.1144 0.0709791 0)
(10.1327 0.0722803 0)
(10.1493 0.0719108 0)
(10.1635 0.0707233 0)
(10.1758 0.0690941 0)
(10.1864 0.0671423 0)
(10.1955 0.0648957 0)
(10.2035 0.0623597 0)
(10.2104 0.0594705 0)
(10.2166 0.0560995 0)
(10.222 0.0520029 0)
(10.2266 0.0467053 0)
(10.2297 0.0398549 0)
(10.2304 0.0306851 0)
(10.0047 0.0235641 0)
(10.0286 0.0486607 0)
(10.0531 0.0571741 0)
(10.0709 0.0620408 0)
(10.0862 0.0654939 0)
(10.1009 0.0670493 0)
(10.1145 0.0670976 0)
(10.1267 0.0662932 0)
(10.1376 0.0649842 0)
(10.1475 0.0632951 0)
(10.1567 0.0612793 0)
(10.1652 0.0589268 0)
(10.1731 0.0561766 0)
(10.1804 0.0529099 0)
(10.1873 0.0489461 0)
(10.1934 0.0440012 0)
(10.1982 0.0379713 0)
(10.2013 0.0307606 0)
(10.0031 0.0187926 0)
(10.0208 0.0421147 0)
(10.0411 0.0513843 0)
(10.0569 0.0565557 0)
(10.0704 0.0602684 0)
(10.0834 0.0621882 0)
(10.0956 0.0625704 0)
(10.1065 0.0620123 0)
(10.1165 0.060889 0)
(10.1257 0.0593411 0)
(10.1343 0.0574275 0)
(10.1423 0.0551441 0)
(10.1499 0.0524522 0)
(10.157 0.049262 0)
(10.1636 0.0454587 0)
(10.1694 0.0408951 0)
(10.1742 0.0355897 0)
(10.1775 0.0296338 0)
(10.0021 0.0151111 0)
(10.0154 0.0359283 0)
(10.0323 0.0456999 0)
(10.0465 0.0512066 0)
(10.0589 0.0550625 0)
(10.0708 0.0572013 0)
(10.082 0.0578323 0)
(10.0923 0.0574881 0)
(10.1016 0.0565367 0)
(10.1103 0.055122 0)
(10.1184 0.0533088 0)
(10.1261 0.0511073 0)
(10.1333 0.0485014 0)
(10.14 0.0454339 0)
(10.1461 0.0418457 0)
(10.1515 0.0376832 0)
(10.156 0.0330295 0)
(10.1593 0.0280267 0)
(10.0015 0.012516 0)
(10.012 0.0311886 0)
(10.0264 0.0411007 0)
(10.0394 0.0467515 0)
(10.051 0.0506161 0)
(10.062 0.0528565 0)
(10.0726 0.0536559 0)
(10.0823 0.0534804 0)
(10.0913 0.0526712 0)
(10.0996 0.0513727 0)
(10.1074 0.0496558 0)
(10.1148 0.0475442 0)
(10.1216 0.0450401 0)
(10.128 0.0421156 0)
(10.1338 0.0387513 0)
(10.1389 0.0349473 0)
(10.1431 0.0308098 0)
(10.1464 0.0264722 0)
(10.0012 0.0105811 0)
(10.0096 0.0273504 0)
(10.0221 0.0371132 0)
(10.034 0.0428157 0)
(10.0448 0.0466612 0)
(10.0552 0.0489521 0)
(10.0652 0.0498664 0)
(10.0745 0.0498154 0)
(10.0831 0.0491143 0)
(10.0911 0.0479101 0)
(10.0987 0.0462768 0)
(10.1057 0.0442506 0)
(10.1123 0.0418473 0)
(10.1184 0.0390631 0)
(10.1239 0.0359042 0)
(10.1288 0.0324029 0)
(10.1328 0.02867 0)
(10.1361 0.024815 0)
(10.0009 0.00887723 0)
(10.0076 0.0236089 0)
(10.0182 0.0329489 0)
(10.029 0.0385979 0)
(10.039 0.0423728 0)
(10.0487 0.0446744 0)
(10.0581 0.0456805 0)
(10.0669 0.0457393 0)
(10.0751 0.0451412 0)
(10.0828 0.0440347 0)
(10.0901 0.0424976 0)
(10.0968 0.0405768 0)
(10.1031 0.038302 0)
(10.1089 0.0356897 0)
(10.1141 0.0327682 0)
(10.1187 0.0295898 0)
(10.1226 0.0262607 0)
(10.1259 0.0228576 0)
(10.0007 0.00736175 0)
(10.006 0.0200074 0)
(10.0148 0.0286753 0)
(10.0244 0.0341363 0)
(10.0337 0.0377672 0)
(10.0426 0.0400233 0)
(10.0513 0.0410854 0)
(10.0596 0.041236 0)
(10.0674 0.040733 0)
(10.0748 0.0397251 0)
(10.0816 0.0382951 0)
(10.088 0.0364985 0)
(10.094 0.0343762 0)
(10.0994 0.0319638 0)
(10.1044 0.0293042 0)
(10.1087 0.0264593 0)
(10.1125 0.0235256 0)
(10.1157 0.0205468 0)
(10.0005 0.00600877 0)
(10.0047 0.0165863 0)
(10.0119 0.0243502 0)
(10.0204 0.0294624 0)
(10.0288 0.0328656 0)
(10.037 0.0350089 0)
(10.045 0.0360769 0)
(10.0528 0.0362925 0)
(10.0601 0.0358746 0)
(10.067 0.0349668 0)
(10.0735 0.0336558 0)
(10.0795 0.0320024 0)
(10.0851 0.0300582 0)
(10.0903 0.0278704 0)
(10.0949 0.025491 0)
(10.099 0.0229834 0)
(10.1026 0.0204319 0)
(10.1057 0.0178496 0)
(10.0004 0.00479947 0)
(10.0037 0.0133735 0)
(10.0096 0.0200391 0)
(10.0169 0.0246253 0)
(10.0244 0.0277026 0)
(10.0319 0.0296547 0)
(10.0392 0.0306645 0)
(10.0464 0.0309056 0)
(10.0533 0.0305554 0)
(10.0597 0.0297453 0)
(10.0658 0.0285623 0)
(10.0715 0.0270709 0)
(10.0767 0.0253277 0)
(10.0816 0.0233856 0)
(10.0859 0.0212989 0)
(10.0898 0.0191287 0)
(10.0932 0.0169405 0)
(10.0963 0.0147333 0)
(10.0003 0.00370945 0)
(10.0029 0.0103664 0)
(10.0077 0.0157925 0)
(10.0139 0.0196781 0)
(10.0206 0.0223151 0)
(10.0273 0.0239899 0)
(10.034 0.0248669 0)
(10.0406 0.0250816 0)
(10.047 0.0247711 0)
(10.053 0.0240486 0)
(10.0587 0.0229961 0)
(10.064 0.0216784 0)
(10.0689 0.0201505 0)
(10.0734 0.0184667 0)
(10.0775 0.0166775 0)
(10.0813 0.0148356 0)
(10.0846 0.0129951 0)
(10.0875 0.0111374 0)
(10.0002 0.00271029 0)
(10.0023 0.00753761 0)
(10.0063 0.0116329 0)
(10.0115 0.0146615 0)
(10.0174 0.016736 0)
(10.0234 0.0180406 0)
(10.0295 0.0187046 0)
(10.0355 0.0188316 0)
(10.0414 0.018522 0)
(10.0469 0.0178665 0)
(10.0522 0.0169369 0)
(10.0572 0.0157913 0)
(10.0618 0.0144818 0)
(10.0661 0.0130549 0)
(10.07 0.0115565 0)
(10.0736 0.0100275 0)
(10.0768 0.00851276 0)
(10.0797 0.00698299 0)
(10.0002 0.00177192 0)
(10.0019 0.00483731 0)
(10.0052 0.00754258 0)
(10.0097 0.00958297 0)
(10.0148 0.0109729 0)
(10.0202 0.0118089 0)
(10.0258 0.0121772 0)
(10.0313 0.0121486 0)
(10.0366 0.0117918 0)
(10.0418 0.0111718 0)
(10.0468 0.0103447 0)
(10.0514 0.00935802 0)
(10.0558 0.00825397 0)
(10.0598 0.00707078 0)
(10.0635 0.00584449 0)
(10.067 0.00460726 0)
(10.0701 0.00339063 0)
(10.073 0.00216641 0)
(10.0002 0.0008574 0)
(10.0016 0.00218893 0)
(10.0045 0.00345334 0)
(10.0084 0.00439733 0)
(10.013 0.00498934 0)
(10.0179 0.00525921 0)
(10.023 0.00524807 0)
(10.0281 0.00499224 0)
(10.0331 0.00453248 0)
(10.0379 0.00390531 0)
(10.0425 0.00314886 0)
(10.0469 0.00229287 0)
(10.0511 0.00136954 0)
(10.0549 0.000403264 0)
(10.0585 -0.000578232 0)
(10.0619 -0.00155513 0)
(10.065 -0.00250407 0)
(10.0678 -0.00345331 0)
(10.0002 -3.08829e-05 0)
(10.0015 -0.000371498 0)
(10.0042 -0.000532298 0)
(10.0079 -0.000705258 0)
(10.0122 -0.000947712 0)
(10.0168 -0.00128208 0)
(10.0216 -0.00171371 0)
(10.0264 -0.0022349 0)
(10.0312 -0.00283731 0)
(10.0358 -0.00350587 0)
(10.0402 -0.00422933 0)
(10.0445 -0.00498903 0)
(10.0485 -0.00577324 0)
(10.0522 -0.00656273 0)
(10.0558 -0.00734777 0)
(10.059 -0.00811009 0)
(10.0621 -0.00884311 0)
(10.0649 -0.00956409 0)
(10.0002 -0.000864354 0)
(10.0016 -0.00275193 0)
(10.0043 -0.00422789 0)
(10.0081 -0.00542101 0)
(10.0124 -0.00642094 0)
(10.017 -0.00730601 0)
(10.0217 -0.00812192 0)
(10.0265 -0.00889083 0)
(10.0311 -0.00962872 0)
(10.0357 -0.0103481 0)
(10.04 -0.0110545 0)
(10.0442 -0.0117486 0)
(10.0482 -0.0124273 0)
(10.0519 -0.0130869 0)
(10.0554 -0.0137217 0)
(10.0587 -0.0143264 0)
(10.0618 -0.0148953 0)
(10.0646 -0.0154487 0)
(10.0002 -0.00167302 0)
(10.0018 -0.00503352 0)
(10.0048 -0.00770786 0)
(10.0089 -0.00978054 0)
(10.0134 -0.0114087 0)
(10.0182 -0.0127455 0)
(10.023 -0.0138703 0)
(10.0278 -0.0148318 0)
(10.0326 -0.01567 0)
(10.0371 -0.0164222 0)
(10.0415 -0.0171087 0)
(10.0457 -0.0177461 0)
(10.0497 -0.0183385 0)
(10.0534 -0.0188949 0)
(10.0569 -0.0194132 0)
(10.0602 -0.0198975 0)
(10.0633 -0.0203429 0)
(10.0662 -0.0207701 0)
(10.0002 -0.0025261 0)
(10.0022 -0.00739242 0)
(10.0057 -0.0111838 0)
(10.0103 -0.01399 0)
(10.0153 -0.0161168 0)
(10.0203 -0.017805 0)
(10.0254 -0.019162 0)
(10.0304 -0.0202526 0)
(10.0352 -0.0211482 0)
(10.0399 -0.0219039 0)
(10.0444 -0.0225597 0)
(10.0486 -0.0231336 0)
(10.0526 -0.0236487 0)
(10.0564 -0.0241103 0)
(10.06 -0.0245344 0)
(10.0633 -0.024916 0)
(10.0665 -0.0252671 0)
(10.0694 -0.0255923 0)
(10.0003 -0.00349145 0)
(10.0028 -0.00997701 0)
(10.0072 -0.0147924 0)
(10.0125 -0.0181655 0)
(10.018 -0.0206606 0)
(10.0234 -0.0226073 0)
(10.0287 -0.0241148 0)
(10.034 -0.0252718 0)
(10.039 -0.0261797 0)
(10.0439 -0.0269133 0)
(10.0485 -0.0275176 0)
(10.0528 -0.028023 0)
(10.0569 -0.0284542 0)
(10.0607 -0.0288312 0)
(10.0644 -0.0291645 0)
(10.0678 -0.0294643 0)
(10.071 -0.0297308 0)
(10.074 -0.0299823 0)
(10.0004 -0.00465308 0)
(10.0038 -0.012926 0)
(10.0094 -0.0186087 0)
(10.0156 -0.0223489 0)
(10.0216 -0.0250975 0)
(10.0274 -0.0272195 0)
(10.0332 -0.0288007 0)
(10.0388 -0.0299633 0)
(10.0441 -0.0308445 0)
(10.0491 -0.0315319 0)
(10.0538 -0.0320704 0)
(10.0583 -0.0324981 0)
(10.0626 -0.0328435 0)
(10.0665 -0.0331354 0)
(10.0703 -0.0333862 0)
(10.0738 -0.0336104 0)
(10.0771 -0.0338095 0)
(10.0802 -0.0339963 0)
(10.0006 -0.00612404 0)
(10.0053 -0.0163779 0)
(10.0125 -0.0226711 0)
(10.0198 -0.0265406 0)
(10.0264 -0.0294451 0)
(10.0327 -0.0316777 0)
(10.0389 -0.033273 0)
(10.0449 -0.0343985 0)
(10.0505 -0.0352272 0)
(10.0558 -0.0358495 0)
(10.0609 -0.0363097 0)
(10.0656 -0.0366475 0)
(10.07 -0.0369026 0)
(10.0741 -0.037104 0)
(10.078 -0.037276 0)
(10.0817 -0.0374282 0)
(10.0851 -0.037571 0)
(10.0883 -0.0377053 0)
(10.001 -0.00804752 0)
(10.0076 -0.0204481 0)
(10.0169 -0.0270443 0)
(10.0254 -0.030807 0)
(10.0327 -0.0337568 0)
(10.0397 -0.0360187 0)
(10.0466 -0.0375776 0)
(10.0531 -0.0386485 0)
(10.0592 -0.0394198 0)
(10.065 -0.0399716 0)
(10.0704 -0.0403432 0)
(10.0754 -0.0405801 0)
(10.0801 -0.0407277 0)
(10.0845 -0.0408247 0)
(10.0886 -0.0408994 0)
(10.0924 -0.0409705 0)
(10.096 -0.0410433 0)
(10.0994 -0.0411182 0)
(10.0016 -0.0106751 0)
(10.0113 -0.025125 0)
(10.0233 -0.0317564 0)
(10.0334 -0.0353813 0)
(10.0417 -0.0382929 0)
(10.0499 -0.0404219 0)
(10.0578 -0.0418141 0)
(10.0652 -0.0427614 0)
(10.0721 -0.0434391 0)
(10.0785 -0.0439045 0)
(10.0844 -0.0441836 0)
(10.09 -0.0443235 0)
(10.0951 -0.0443744 0)
(10.0999 -0.0443783 0)
(10.1043 -0.0443737 0)
(10.1083 -0.0443818 0)
(10.1121 -0.0444132 0)
(10.1156 -0.0444502 0)
(10.0029 -0.0148711 0)
(10.0177 -0.0303755 0)
(10.0342 -0.03625 0)
(10.0471 -0.0399617 0)
(10.0578 -0.0431328 0)
(10.0681 -0.0452154 0)
(10.0779 -0.0463967 0)
(10.0869 -0.0471179 0)
(10.0951 -0.0475752 0)
(10.1027 -0.0478075 0)
(10.1096 -0.0478454 0)
(10.116 -0.0477456 0)
(10.1217 -0.0475628 0)
(10.1268 -0.047352 0)
(10.1315 -0.0471582 0)
(10.1357 -0.0470081 0)
(10.1395 -0.0469133 0)
(10.1428 -0.0468225 0)
(10.0076 -0.0229401 0)
(10.0355 -0.037991 0)
(10.0622 -0.0405443 0)
(10.0821 -0.043282 0)
(10.099 -0.0467334 0)
(10.1148 -0.0492571 0)
(10.1289 -0.05081 0)
(10.141 -0.0518364 0)
(10.1514 -0.0525208 0)
(10.1604 -0.0528694 0)
(10.1679 -0.0529237 0)
(10.1741 -0.0527549 0)
(10.1791 -0.0524419 0)
(10.1829 -0.0520614 0)
(10.1856 -0.051695 0)
(10.1875 -0.0514101 0)
(10.1887 -0.0512225 0)
(10.1891 -0.0511667 0)
(10.0379 -0.0341641 0)
(10.1191 -0.0588869 0)
(10.1732 -0.0604119 0)
(10.2063 -0.0591461 0)
(10.2279 -0.0585715 0)
(10.2412 -0.0578046 0)
(10.2468 -0.0567557 0)
(10.2458 -0.0557069 0)
(10.2394 -0.0546958 0)
(10.2288 -0.0536226 0)
(10.2149 -0.0524495 0)
(10.1982 -0.0511949 0)
(10.1793 -0.0499137 0)
(10.1586 -0.0486759 0)
(10.1368 -0.0475475 0)
(10.1143 -0.046637 0)
(10.092 -0.0459942 0)
(10.07 -0.0459872 0)
(9.89378 -0.0265552 0)
(9.69565 -0.0516242 0)
(9.49551 -0.0593682 0)
(9.29489 -0.0617152 0)
(9.10596 -0.0616437 0)
(8.9319 -0.0600501 0)
(8.77162 -0.0575109 0)
(8.62343 -0.0545725 0)
(8.48663 -0.0514777 0)
(8.36097 -0.0482781 0)
(8.24589 -0.045032 0)
(8.14077 -0.0418216 0)
(8.04482 -0.0386984 0)
(7.95734 -0.0357063 0)
(7.87753 -0.0329723 0)
(7.80401 -0.0306786 0)
(7.73543 -0.0288574 0)
(7.67144 -0.0278093 0)
(-0.00892327 0.0200509 0)
(-0.0291772 0.0260356 0)
(-0.0489556 0.0148468 0)
(-0.0415966 -0.0115104 0)
(-0.00709362 -0.0448982 0)
(0.0406331 -0.0690058 0)
(0.0961849 -0.0806106 -4.24485e-19)
(0.156865 -0.0837364 3.1926e-19)
(0.218481 -0.0819596 0)
(0.277533 -0.077704 2.18772e-19)
(0.332083 -0.0721149 0)
(0.381839 -0.0657776 0)
(0.427122 -0.059119 0)
(0.468016 -0.0525227 -1.49001e-19)
(0.504472 -0.0461865 0)
(0.536512 -0.0402387 0)
(0.564315 -0.0347507 1.30077e-19)
(0.588127 -0.0297207 0)
(0.608183 -0.0250548 0)
(0.62466 -0.0206165 0)
(0.637685 -0.0165725 -1.20318e-19)
(0.647429 -0.0128451 0)
(0.653855 -0.00897181 -1.19255e-19)
(0.657263 -0.005143 0)
(0.656778 -0.00116174 0)
(0.652587 0.00295028 -1.20881e-19)
(0.645013 0.00681797 0)
(0.63444 0.0102936 1.24745e-19)
(0.621307 0.0132571 0)
(0.606086 0.0158434 -1.31186e-19)
(0.589278 0.0179032 0)
(0.571537 0.0190536 0)
(0.553568 0.0193708 0)
(0.536016 0.0188473 0)
(0.519465 0.0174781 0)
(0.504467 0.0152802 1.61532e-19)
(0.491522 0.012367 0)
(0.481053 0.00890874 -3.439e-19)
(0.473221 0.00526403 0)
(0.467994 0.00171838 3.5867e-19)
(0.46505 -0.00142612 0)
(0.463943 -0.00392979 0)
(0.463963 -0.0056512 -3.6398e-19)
(0.46449 -0.00655858 0)
(0.46475 -0.00656764 -3.60062e-19)
(0.464303 -0.0057369 3.58268e-19)
(0.462526 -0.00411952 0)
(0.459082 -0.00189851 3.56674e-19)
(0.453539 0.000847385 3.57367e-19)
(0.44568 0.00407939 0)
(0.435163 0.0076798 0)
(0.421667 0.0118157 0)
(0.4047 0.0164399 0)
(0.383464 0.0212523 0)
(0.357346 0.0259945 -4.12213e-19)
(0.325895 0.0303597 0)
(0.289351 0.0337165 4.7746e-19)
(0.249051 0.0355962 0)
(0.20719 0.0350479 0)
(0.16695 0.0311476 -7.23304e-19)
(0.133383 0.0234756 0)
(0.112667 0.0121435 1.08762e-18)
(0.110073 -0.000454821 0)
(0.124455 -0.0116545 0)
(0.143687 -0.0208445 0)
(0.164995 -0.0274365 -1.00892e-18)
(0.184468 -0.0313368 0)
(0.200209 -0.0331248 0)
(0.211341 -0.0324974 -7.13076e-19)
(0.216879 -0.0298837 0)
(0.218385 -0.0264521 -6.88189e-19)
(0.212486 -0.0231267 0)
(0.19485 -0.0195271 0)
(0.15523 -0.0155078 0)
(0.0914554 -0.0109774 8.64779e-19)
(-0.0352361 -8.44031e-05 0)
(-0.234606 0.036555 0)
(-0.450667 0.0886886 3.33142e-19)
(-0.714804 0.14435 2.2631e-19)
(-1.0098 0.186907 0)
(-1.31956 0.20993 1.32794e-19)
(-1.626 0.214722 0)
(-1.91566 0.205377 1.88144e-19)
(-2.18041 0.187366 0)
(-2.41572 0.165255 1.49698e-19)
(-2.62093 0.142901 0)
(-2.79799 0.122238 -1.28151e-19)
(-2.94999 0.104092 0)
(-3.08066 0.0886756 0)
(-3.19345 0.0761065 0)
(-3.29166 0.0662402 1.06149e-19)
(-3.37825 0.0584956 0)
(-3.45588 0.0525011 -1.0003e-19)
(-3.52634 0.047854 0)
(-3.59119 0.0441672 9.57136e-20)
(-3.65153 0.0411592 9.41435e-20)
(-3.70826 0.0386483 9.29376e-20)
(-3.76206 0.0361122 0)
(-3.81306 0.0336093 0)
(-3.86165 0.0314769 0)
(-3.90792 0.0298518 0)
(-3.95228 0.0282403 0)
(-3.99457 0.0262988 0)
(-4.03488 0.0244737 0)
(-4.07316 0.0227052 0)
(-4.10935 0.0208616 -9.18794e-20)
(-4.14334 0.0190084 -9.24127e-20)
(-4.1751 0.0173159 0)
(-4.2045 0.0157006 0)
(-4.23136 0.0143167 0)
(-4.25567 0.0129952 -9.44367e-20)
(-4.2771 0.0115746 0)
(-4.29554 0.0101696 0)
(-4.31086 0.00891321 0)
(-4.32325 0.00756393 0)
(-4.33254 0.0060299 9.60127e-20)
(-4.33917 0.00507935 0)
(-4.34396 0.0041934 0)
(-4.34665 0.00317224 -9.60441e-20)
(-4.34751 0.00239238 9.58675e-20)
(-4.34669 0.0013906 0)
(-4.34407 -4.13682e-05 9.52627e-20)
(-4.33977 -0.00140467 0)
(-4.33404 -0.00261331 -9.403e-20)
(-4.32701 -0.0038553 0)
(-4.31883 -0.00530419 0)
(-4.30944 -0.00659484 0)
(-4.29942 -0.00723609 0)
(-4.2891 -0.0078101 0)
(-4.27835 -0.00857992 1.69874e-19)
(-4.26698 -0.0090598 1.6504e-19)
(-4.2552 -0.00947361 0)
(-4.24294 -0.00936356 0)
(-4.23098 -0.00897044 0)
(-4.21888 -0.00869774 -1.45444e-19)
(-4.20754 -0.00827292 0)
(-4.19672 -0.00797455 0)
(-4.18745 -0.00684128 0)
(-4.1809 -0.00556174 -1.32679e-19)
(-4.17712 -0.00457087 1.30169e-19)
(-4.17666 -0.0029425 0)
(-4.18007 -0.000673493 0)
(-4.18836 0.00264896 1.18816e-19)
(-4.2017 0.00651559 1.13003e-19)
(-4.21872 0.010169 0)
(-4.23735 0.0137954 0)
(-4.25495 0.0181927 -8.96775e-20)
(-4.26943 0.0224826 8.16123e-20)
(-4.27746 0.0258104 0)
(-4.27733 0.0294628 0)
(-4.26772 0.0322241 7.08446e-20)
(-4.24551 0.0330437 0)
(-4.20957 0.0326174 0)
(-4.15939 0.0304801 1.0585e-19)
(-4.09509 0.0264 0)
(-4.01713 0.0203122 1.57594e-19)
(-3.92572 0.0118835 0)
(-3.8204 0.00139245 0)
(-3.69851 -0.0114835 0)
(-3.55578 -0.0267538 -2.38452e-19)
(-3.38619 -0.0443419 0)
(-3.18375 -0.0633781 0)
(-2.94383 -0.0843146 0)
(-2.66443 -0.107946 0)
(-2.34866 -0.131986 0)
(-2.00254 -0.155154 0)
(-1.63734 -0.176427 2.35887e-19)
(-1.25746 -0.195006 4.14177e-19)
(-0.873669 -0.214924 0)
(-0.455504 -0.236344 0)
(0.0602607 -0.231542 0)
(0.547854 -0.208658 -6.71362e-19)
(0.989685 -0.183305 0)
(1.38763 -0.160305 1.16611e-18)
(1.74176 -0.142672 -1.11109e-18)
(2.05303 -0.127045 -1.07034e-18)
(2.3254 -0.109521 1.03795e-18)
(2.54469 -0.0904438 -1.01675e-18)
(2.73601 -0.0642244 1.01174e-18)
(2.77008 -0.0242293 0)
(0.00284335 0.0406935 0)
(-0.00173437 0.052641 0)
(0.0261243 0.00705937 1.70851e-18)
(0.0812436 -0.0720467 0)
(0.138961 -0.136335 -5.23422e-19)
(0.193288 -0.17061 -3.64404e-19)
(0.24362 -0.181282 -1.40117e-19)
(0.289198 -0.178495 -1.14407e-19)
(0.329736 -0.169111 0)
(0.365717 -0.15674 -8.76564e-20)
(0.397931 -0.143064 0)
(0.426931 -0.12902 0)
(0.453004 -0.11519 1.44363e-19)
(0.476262 -0.101904 6.96876e-20)
(0.49679 -0.0892616 -1.36575e-19)
(0.51469 -0.0772938 -1.34713e-19)
(0.530057 -0.0659802 -6.6792e-20)
(0.542965 -0.0553221 0)
(0.553467 -0.0452726 0)
(0.561621 -0.0358044 0)
(0.56749 -0.0268563 -6.82147e-20)
(0.571132 -0.0183895 0)
(0.572728 -0.010285 2.10508e-19)
(0.572427 -0.00231318 0)
(0.571051 0.00558595 0)
(0.568523 0.0131264 7.48338e-20)
(0.564765 0.0201072 0)
(0.559664 0.026313 -7.98033e-20)
(0.553141 0.0316072 -1.65407e-19)
(0.545173 0.0358246 8.59841e-20)
(0.535803 0.0388543 0)
(0.525099 0.0406054 0)
(0.513168 0.0410194 0)
(0.500157 0.0401039 -2.0122e-19)
(0.486399 0.0380725 -2.08732e-19)
(0.472176 0.0350108 -1.08293e-19)
(0.45765 0.0311721 0)
(0.443039 0.0268299 2.29317e-19)
(0.428537 0.0223248 0)
(0.414366 0.0179434 -2.35211e-19)
(0.400786 0.0140103 0)
(0.388157 0.0106888 0)
(0.376814 0.00821895 2.27014e-19)
(0.367078 0.0068207 0)
(0.358965 0.00659354 6.52908e-19)
(0.352153 0.00751291 -2.14701e-19)
(0.346311 0.00954553 0)
(0.341004 0.0125043 -2.145e-19)
(0.335767 0.0162929 -2.16877e-19)
(0.330242 0.0207913 0)
(0.323958 0.0258843 0)
(0.316462 0.0316373 0)
(0.307479 0.0380777 0)
(0.296878 0.0453414 0)
(0.284684 0.0531026 2.81028e-19)
(0.270956 0.0608968 6.05855e-19)
(0.255795 0.0675725 -3.32189e-19)
(0.239241 0.0718396 0)
(0.221428 0.071994 8.08763e-19)
(0.202639 0.0661657 -4.53997e-19)
(0.184025 0.0534174 0)
(0.168104 0.0342235 -5.92241e-19)
(0.155833 0.0127964 0)
(0.146005 -0.00493036 0)
(0.132303 -0.0170621 -1.2725e-18)
(0.115986 -0.0237467 5.68921e-19)
(0.0988138 -0.0231814 -1.05743e-18)
(0.0757948 -0.0148861 1.03931e-18)
(0.0410262 -0.00037484 5.35564e-19)
(-0.00898727 0.0192406 0)
(-0.0807227 0.0423588 6.43494e-19)
(-0.18738 0.0654421 0)
(-0.344629 0.102109 0)
(-0.546697 0.161735 0)
(-0.795208 0.240652 1.9342e-19)
(-1.08847 0.329707 0)
(-1.40945 0.417421 2.21298e-19)
(-1.73501 0.485427 -2.70976e-19)
(-2.05688 0.521667 -7.65919e-20)
(-2.35306 0.523994 0)
(-2.61159 0.500043 -6.0258e-20)
(-2.82674 0.458293 0)
(-3.00085 0.406891 -1.02365e-19)
(-3.13875 0.352973 0)
(-3.24758 0.301422 -9.13959e-20)
(-3.33445 0.25516 1.74891e-19)
(-3.4052 0.215446 8.40731e-20)
(-3.46482 0.182513 0)
(-3.51664 0.155774 0)
(-3.56319 0.134464 0)
(-3.60574 0.117683 -7.48944e-20)
(-3.64531 0.104576 0)
(-3.68207 0.0943194 7.18045e-20)
(-3.71723 0.0861494 0)
(-3.75105 0.079515 -2.07513e-19)
(-3.78388 0.074106 -6.86411e-20)
(-3.81574 0.0695736 -6.80933e-20)
(-3.84659 0.0656132 0)
(-3.87643 0.0620534 0)
(-3.90513 0.0587969 0)
(-3.93264 0.0556537 0)
(-3.95904 0.0527 0)
(-3.98421 0.0498032 -1.35446e-19)
(-4.00811 0.046859 -1.36462e-19)
(-4.0306 0.0438321 0)
(-4.05164 0.0407491 6.98141e-20)
(-4.07117 0.0376563 7.05313e-20)
(-4.08916 0.0344962 0)
(-4.10574 0.0312536 1.43369e-19)
(-4.1208 0.0278872 0)
(-4.13435 0.0244484 -7.29723e-20)
(-4.14628 0.020951 0)
(-4.15687 0.0174738 0)
(-4.16606 0.0141609 1.49245e-19)
(-4.17382 0.011099 0)
(-4.18051 0.00838141 -7.53817e-20)
(-4.18578 0.00600674 0)
(-4.18921 0.00383179 0)
(-4.19078 0.00185414 -7.60649e-20)
(-4.19048 -4.18224e-05 -7.61039e-20)
(-4.18842 -0.00181014 0)
(-4.1846 -0.00338453 7.58376e-20)
(-4.17956 -0.00476268 0)
(-4.17305 -0.00609751 -7.51292e-20)
(-4.16558 -0.00730766 -1.49356e-19)
(-4.15701 -0.00839232 0)
(-4.14714 -0.00950258 0)
(-4.13653 -0.0102784 0)
(-4.12488 -0.0108427 0)
(-4.11281 -0.0113128 -1.37871e-19)
(-4.10006 -0.0116861 -4.03686e-19)
(-4.0865 -0.0121595 0)
(-4.07294 -0.0122894 0)
(-4.05903 -0.0118616 0)
(-4.04531 -0.0112134 1.17984e-19)
(-4.03216 -0.0101329 0)
(-4.01908 -0.00858934 0)
(-4.00731 -0.00657773 -2.21047e-19)
(-3.99718 -0.00414686 -1.08065e-19)
(-3.98936 -0.00152865 -1.07207e-19)
(-3.98403 0.00120596 0)
(-3.98159 0.00398493 0)
(-3.98079 0.00666487 -9.8871e-20)
(-3.98153 0.00853166 9.39224e-20)
(-3.98307 0.00930825 0)
(-3.98561 0.00874676 0)
(-3.98852 0.00660603 7.46482e-20)
(-3.99119 0.00280693 -2.03423e-19)
(-3.99176 -0.00254474 0)
(-3.9873 -0.00938145 0)
(-3.9756 -0.01764 -5.78815e-20)
(-3.95475 -0.0269322 0)
(-3.92301 -0.0368938 -1.38403e-19)
(-3.87872 -0.0469528 7.97424e-20)
(-3.82049 -0.0569083 0)
(-3.74703 -0.0666626 -1.32854e-19)
(-3.65656 -0.0769382 -3.06746e-19)
(-3.54625 -0.0890553 0)
(-3.41208 -0.104853 0)
(-3.24865 -0.12575 2.04631e-19)
(-3.04973 -0.152305 0)
(-2.80998 -0.183415 -3.70229e-19)
(-2.52677 -0.216111 0)
(-2.20308 -0.245642 0)
(-1.83965 -0.270955 0)
(-1.44134 -0.291782 0)
(-1.01513 -0.31114 -7.20286e-20)
(-0.545504 -0.33382 -1.42695e-19)
(-0.0260891 -0.364657 0)
(0.463767 -0.383612 0)
(0.906858 -0.374116 0)
(1.32029 -0.346098 2.49721e-19)
(1.71057 -0.312445 0)
(2.07414 -0.278323 -5.3484e-19)
(2.40593 -0.244503 5.44795e-19)
(2.70405 -0.211626 5.53074e-19)
(2.96792 -0.178852 5.46228e-19)
(3.19297 -0.144599 5.71129e-19)
(3.38398 -0.099921 5.72946e-19)
(3.5053 -0.0260881 0)
(-0.00116044 0.0319895 0)
(0.0224558 -0.00921152 0)
(0.0857219 -0.127476 -8.32828e-19)
(0.155453 -0.223047 -4.67955e-19)
(0.210361 -0.265789 3.09887e-19)
(0.251075 -0.272072 2.2721e-19)
(0.283248 -0.261049 -3.41941e-22)
(0.309962 -0.243488 0)
(0.333015 -0.223942 0)
(0.353498 -0.204114 0)
(0.371979 -0.184662 0)
(0.388706 -0.165868 0)
(0.403782 -0.147842 -2.6548e-19)
(0.41723 -0.130603 0)
(0.429036 -0.114131 8.28104e-20)
(0.439169 -0.0984049 8.14684e-20)
(0.447579 -0.0833846 0)
(0.454211 -0.0690384 0)
(0.459025 -0.0553319 0)
(0.461985 -0.0422459 0)
(0.46307 -0.0297759 8.25429e-20)
(0.462276 -0.0179362 0)
(0.459624 -0.00674668 -8.55489e-20)
(0.455178 0.00376974 0)
(0.449048 0.0136697 0)
(0.441388 0.022997 0)
(0.432355 0.0316752 -1.88866e-19)
(0.422106 0.0395733 0)
(0.4108 0.0465462 1.01984e-19)
(0.398585 0.0524209 -2.12344e-19)
(0.385614 0.0570341 0)
(0.372046 0.0602333 0)
(0.358024 0.0619029 0)
(0.343723 0.0620013 1.26006e-19)
(0.329303 0.0606344 1.30532e-19)
(0.314924 0.0579215 0)
(0.300766 0.0540626 0)
(0.287046 0.0493587 -2.7895e-19)
(0.273993 0.0441132 -2.80366e-19)
(0.261834 0.0386454 2.79076e-19)
(0.250799 0.0333014 0)
(0.241031 0.0283431 0)
(0.232574 0.0240231 0)
(0.225369 0.0206222 0)
(0.219268 0.0184237 -2.56327e-19)
(0.214062 0.0176402 -2.54275e-19)
(0.209469 0.0183836 2.54038e-19)
(0.205138 0.020621 0)
(0.200708 0.0242922 0)
(0.195726 0.0292709 0)
(0.189803 0.0354478 0)
(0.182535 0.0428164 -2.85576e-19)
(0.173647 0.0513073 0)
(0.163023 0.0607914 0)
(0.1506 0.0707138 -3.46603e-19)
(0.136836 0.0803437 -3.8091e-19)
(0.122041 0.0884863 0)
(0.106951 0.0936602 9.52257e-19)
(0.0919224 0.0942666 -5.43399e-19)
(0.0769272 0.0882596 6.22742e-19)
(0.0613514 0.0740299 0)
(0.0434688 0.0516633 0)
(0.0205098 0.0255181 0)
(-0.00864827 0.00542827 0)
(-0.0418064 -0.000106838 8.70469e-19)
(-0.0818726 0.0108105 1.69277e-18)
(-0.136862 0.0337001 7.77429e-19)
(-0.211687 0.064352 -6.68347e-19)
(-0.309885 0.102438 0)
(-0.43791 0.149924 9.34982e-19)
(-0.600808 0.211275 7.70956e-19)
(-0.806889 0.290286 6.26944e-19)
(-1.05918 0.389704 -5.03161e-19)
(-1.34616 0.504727 0)
(-1.64948 0.621733 -5.02243e-19)
(-1.95091 0.721779 0)
(-2.22482 0.786301 1.25245e-19)
(-2.45292 0.808524 1.11962e-19)
(-2.63018 0.791291 0)
(-2.76256 0.741627 0)
(-2.85875 0.670623 1.7647e-19)
(-2.92912 0.589995 0)
(-2.98359 0.508595 1.57423e-19)
(-3.02911 0.432574 0)
(-3.07043 0.365444 -1.42725e-19)
(-3.10999 0.308607 -2.73852e-19)
(-3.14881 0.261867 0)
(-3.18723 0.224221 0)
(-3.22523 0.19428 0)
(-3.26262 0.170716 -1.18666e-19)
(-3.29912 0.152236 0)
(-3.33465 0.137644 -1.12824e-19)
(-3.36934 0.12597 0)
(-3.40299 0.116548 0)
(-3.43586 0.108806 2.14433e-19)
(-3.46785 0.102318 0)
(-3.49895 0.0966774 1.04699e-19)
(-3.52926 0.0914781 0)
(-3.55881 0.0866191 1.03831e-19)
(-3.58745 0.0819978 0)
(-3.61527 0.0775184 0)
(-3.64184 0.0732673 0)
(-3.66731 0.0691193 3.1601e-19)
(-3.6916 0.0649603 1.06697e-19)
(-3.71447 0.0607129 0)
(-3.73603 0.056433 0)
(-3.75604 0.052206 0)
(-3.77465 0.047869 0)
(-3.79157 0.0433798 -1.1258e-19)
(-3.80689 0.0388051 2.27151e-19)
(-3.82063 0.0342436 1.15036e-19)
(-3.83264 0.0295823 -2.3198e-19)
(-3.84291 0.024795 -2.34183e-19)
(-3.85156 0.0203301 -1.18168e-19)
(-3.85843 0.0159969 0)
(-3.8636 0.0117097 -2.40367e-19)
(-3.86678 0.00766329 0)
(-3.86804 0.00379497 2.42425e-19)
(-3.86764 0.000154217 1.21293e-19)
(-3.86534 -0.00331359 0)
(-3.86147 -0.00639877 -2.43346e-19)
(-3.85612 -0.0091681 -1.21283e-19)
(-3.84936 -0.0115862 0)
(-3.8411 -0.0137662 -1.20197e-19)
(-3.83192 -0.0158197 3.5888e-19)
(-3.82133 -0.0175046 0)
(-3.81009 -0.0191745 0)
(-3.79813 -0.0203652 0)
(-3.78506 -0.0212477 0)
(-3.77166 -0.0223431 2.25385e-19)
(-3.75749 -0.0232264 2.19205e-19)
(-3.74318 -0.024056 0)
(-3.72827 -0.0245445 0)
(-3.71307 -0.0245298 0)
(-3.69826 -0.023972 0)
(-3.68293 -0.0223462 0)
(-3.66863 -0.0198817 0)
(-3.6551 -0.0166291 1.83629e-19)
(-3.64224 -0.0125644 1.03679e-21)
(-3.63067 -0.00793018 0)
(-3.62067 -0.00276987 0)
(-3.61204 0.00246466 1.68365e-19)
(-3.60459 0.00711762 0)
(-3.59903 0.0109333 -1.5796e-19)
(-3.59517 0.013524 -1.48153e-19)
(-3.5931 0.0141257 0)
(-3.59252 0.0123932 0)
(-3.59247 0.00786859 1.13911e-19)
(-3.5921 0.000291245 2.097e-19)
(-3.59036 -0.0101387 0)
(-3.58488 -0.0232731 0)
(-3.57383 -0.0387172 0)
(-3.55444 -0.0558367 1.13635e-19)
(-3.52378 -0.0740057 -1.36945e-19)
(-3.47854 -0.0929111 0)
(-3.4153 -0.112589 -3.96945e-19)
(-3.33019 -0.13398 -2.31102e-19)
(-3.2188 -0.158684 5.50053e-19)
(-3.07631 -0.188794 0)
(-2.89717 -0.2259 0)
(-2.67493 -0.270422 6.30593e-19)
(-2.40621 -0.320795 2.88325e-19)
(-2.09125 -0.374102 0)
(-1.73407 -0.424546 0)
(-1.33604 -0.467809 0)
(-0.904937 -0.50396 0)
(-0.433455 -0.535504 -1.65812e-19)
(0.0637688 -0.559395 0)
(0.545742 -0.569963 0)
(0.995539 -0.565159 0)
(1.41442 -0.543779 0)
(1.80711 -0.507919 0)
(2.17522 -0.464984 0)
(2.51655 -0.419907 -6.88779e-19)
(2.82921 -0.375131 0)
(3.11202 -0.330489 0)
(3.36526 -0.284626 -1.48109e-18)
(3.58462 -0.234504 7.54371e-19)
(3.77598 -0.173551 -7.88098e-19)
(3.91356 -0.0852895 8.28489e-19)
(0.00176339 0.00248212 0)
(0.0612103 -0.15317 1.95436e-18)
(0.132161 -0.284654 0)
(0.184729 -0.336466 3.12738e-19)
(0.216643 -0.339173 0)
(0.2379 -0.323242 0)
(0.254736 -0.301689 -1.29772e-19)
(0.269452 -0.278727 0)
(0.282836 -0.255682 0)
(0.295171 -0.233033 0)
(0.306544 -0.210985 0)
(0.316944 -0.189622 0)
(0.32631 -0.168963 2.73038e-19)
(0.334555 -0.148992 1.31616e-19)
(0.341579 -0.129681 -1.28148e-19)
(0.347278 -0.111001 0)
(0.351561 -0.092939 0)
(0.354333 -0.0754714 0)
(0.355515 -0.0585705 0)
(0.355044 -0.0422486 0)
(0.352871 -0.0265402 1.25497e-19)
(0.348968 -0.0114945 1.27106e-19)
(0.34333 0.00283922 -1.28924e-19)
(0.335973 0.0164095 1.30846e-19)
(0.326951 0.0291631 0)
(0.316371 0.0410362 0)
(0.304375 0.0519327 1.40264e-19)
(0.291146 0.0617284 0)
(0.276876 0.0702519 0)
(0.26177 0.0773011 1.55042e-19)
(0.246055 0.0827071 1.60645e-19)
(0.229979 0.0863205 1.66893e-19)
(0.213785 0.0880328 0)
(0.197729 0.0878125 0)
(0.18206 0.0857388 -1.84659e-19)
(0.167013 0.0819666 0)
(0.152811 0.0767444 0)
(0.139635 0.070393 1.94817e-19)
(0.127607 0.0632625 -1.95054e-19)
(0.116823 0.0557502 1.94565e-19)
(0.107307 0.0482733 0)
(0.0990294 0.04121 0)
(0.091896 0.0349265 3.79741e-19)
(0.0857744 0.029795 0)
(0.0804986 0.0261637 3.76069e-19)
(0.0758645 0.0243174 5.65124e-19)
(0.0716054 0.0244365 -5.691e-19)
(0.0674045 0.0265559 3.84301e-19)
(0.0629238 0.03062 0)
(0.0577894 0.0365439 0)
(0.051665 0.0442302 4.15537e-19)
(0.0442078 0.0535746 2.16788e-19)
(0.035122 0.0643617 0)
(0.024212 0.0761847 0)
(0.0113583 0.0882524 2.61177e-19)
(-0.00322055 0.0994756 5.6893e-19)
(-0.0193275 0.10847 0)
(-0.0365082 0.113683 -7.14835e-19)
(-0.0546448 0.113613 8.12997e-19)
(-0.0740822 0.107184 -9.21374e-19)
(-0.0959181 0.094588 0)
(-0.122777 0.0779667 0)
(-0.158647 0.0635902 0)
(-0.20703 0.0602262 0)
(-0.271079 0.0729661 0)
(-0.353792 0.102438 -9.02076e-19)
(-0.455916 0.147137 0)
(-0.580271 0.20502 0)
(-0.733493 0.276942 0)
(-0.921474 0.365622 -9.62959e-19)