/*--------------------------------*- C++ -*----------------------------------*\
| =========                 |                                                 |
| \\      /  F ield         | OpenFOAM: The Open Source CFD Toolbox           |
|  \\    /   O peration     | Version:  4.x                                   |
|   \\  /    A nd           | Web:      www.OpenFOAM.org                      |
|    \\/     M anipulation  |                                                 |
\*---------------------------------------------------------------------------*/
FoamFile
{
    version     2.0;
    format      ascii;
    class       volScalarField;
    location    "300";
    object      k;
}
// * * * * * * * * * * * * * * * * * * * * * * * * * * * * * * * * * * * * * //

dimensions      [0 2 -2 0 0 0 0];

internalField   nonuniform List<scalar> 
12225
(
0.544411
0.818538
0.988914
1.0766
1.10265
1.09676
1.07978
1.0497
1.01758
0.986821
0.958337
0.932122
0.909548
0.888138
0.872046
0.854199
0.845326
0.829472
0.379677
0.389528
0.402866
0.418156
0.431983
0.447893
0.463427
0.483126
0.502643
0.526874
0.543782
0.566335
0.581037
0.601953
0.614363
0.633525
0.643162
0.660001
0.37461
0.373447
0.372357
0.369263
0.365308
0.35994
0.354736
0.349467
0.345122
0.341647
0.338644
0.336448
0.334546
0.333417
0.332394
0.332046
0.331477
0.331753
0.374161
0.371896
0.370123
0.367419
0.364819
0.361099
0.357556
0.353158
0.349214
0.344744
0.34091
0.336727
0.333229
0.329405
0.326204
0.32279
0.31986
0.316858
0.374026
0.371652
0.369782
0.367468
0.365374
0.362713
0.360213
0.357207
0.354458
0.351354
0.348616
0.345573
0.342946
0.340079
0.337641
0.33495
0.332715
0.330175
0.37394
0.371609
0.369646
0.367537
0.365632
0.363477
0.361443
0.359165
0.357031
0.354733
0.352636
0.350423
0.348432
0.346336
0.344478
0.342493
0.34077
0.338875
0.373886
0.371596
0.369553
0.367517
0.365653
0.363736
0.361921
0.360022
0.358215
0.356357
0.354617
0.352855
0.351223
0.349568
0.34805
0.346492
0.34508
0.343598
0.37386
0.371588
0.369501
0.367477
0.365604
0.363761
0.362016
0.360271
0.358605
0.356944
0.355371
0.353816
0.352355
0.350908
0.349556
0.348204
0.34695
0.345673
0.373846
0.371581
0.369469
0.367446
0.365555
0.363734
0.362012
0.360335
0.358735
0.357175
0.355691
0.354248
0.352881
0.351549
0.350292
0.349057
0.347897
0.346741
0.373837
0.371574
0.369445
0.367419
0.365511
0.363691
0.361971
0.36032
0.35875
0.357239
0.355802
0.35442
0.353107
0.351841
0.350641
0.349478
0.348376
0.347301
0.373832
0.371567
0.369428
0.367397
0.365477
0.363652
0.361924
0.360278
0.358714
0.35722
0.355799
0.354441
0.353149
0.351913
0.350737
0.349609
0.348534
0.347502
0.373829
0.371561
0.369415
0.36738
0.365452
0.363621
0.361885
0.360235
0.358667
0.357174
0.355753
0.3544
0.353111
0.351883
0.350711
0.349593
0.348525
0.347506
0.373828
0.371557
0.369406
0.367367
0.365433
0.363597
0.361855
0.360199
0.358625
0.357128
0.355703
0.354347
0.353055
0.351823
0.350649
0.34953
0.34846
0.347441
0.373826
0.371554
0.369399
0.367357
0.365419
0.363579
0.361832
0.360171
0.358593
0.357091
0.355661
0.3543
0.353003
0.351767
0.350588
0.349465
0.348391
0.347368
0.373826
0.371552
0.369395
0.367349
0.365408
0.363565
0.361814
0.36015
0.358568
0.357062
0.355628
0.354263
0.352962
0.351722
0.350539
0.349411
0.348334
0.347307
0.373825
0.37155
0.369392
0.367344
0.365401
0.363555
0.361802
0.360135
0.358549
0.35704
0.355603
0.354235
0.352931
0.351687
0.350502
0.349371
0.348291
0.347261
0.373825
0.371549
0.36939
0.367341
0.365396
0.363549
0.361793
0.360124
0.358536
0.357025
0.355586
0.354215
0.352909
0.351663
0.350475
0.349342
0.34826
0.347228
0.373825
0.371549
0.369389
0.36734
0.365394
0.363546
0.36179
0.360119
0.35853
0.357018
0.355577
0.354205
0.352897
0.35165
0.350461
0.349326
0.348243
0.34721
0.373825
0.371549
0.36939
0.367341
0.365395
0.363547
0.36179
0.360119
0.35853
0.357017
0.355576
0.354203
0.352895
0.351647
0.350457
0.349322
0.348239
0.347205
0.373825
0.37155
0.369391
0.367343
0.365398
0.36355
0.361794
0.360124
0.358535
0.357022
0.355581
0.354209
0.3529
0.351653
0.350463
0.349328
0.348245
0.347211
0.373826
0.371551
0.369394
0.367347
0.365403
0.363556
0.361801
0.360132
0.358544
0.357032
0.355592
0.35422
0.352913
0.351666
0.350477
0.349342
0.348259
0.347225
0.373826
0.371553
0.369398
0.367353
0.36541
0.363566
0.361812
0.360145
0.358558
0.357047
0.355608
0.354237
0.352929
0.351682
0.350491
0.349355
0.348269
0.347232
0.373826
0.371557
0.369404
0.367362
0.365421
0.363579
0.361827
0.360161
0.358573
0.357061
0.355617
0.35424
0.352924
0.351667
0.350464
0.349314
0.348211
0.347157
0.373825
0.371565
0.369414
0.367374
0.365432
0.36359
0.361832
0.360159
0.358555
0.357023
0.355551
0.354141
0.352784
0.351482
0.350227
0.349023
0.347859
0.346745
0.373823
0.371585
0.369426
0.36738
0.365416
0.363556
0.361761
0.360043
0.35837
0.356758
0.355183
0.353665
0.352182
0.350753
0.349356
0.348013
0.346698
0.34544
0.373838
0.371631
0.369423
0.367341
0.365297
0.363369
0.361445
0.359583
0.357709
0.355881
0.354053
0.352277
0.350511
0.348805
0.347115
0.345491
0.343884
0.342354
0.373938
0.371734
0.369446
0.367314
0.365088
0.362971
0.360714
0.358502
0.356162
0.353874
0.351515
0.349228
0.346924
0.344707
0.34251
0.340411
0.338352
0.336402
0.374279
0.372391
0.370365
0.3684
0.365901
0.363445
0.360547
0.357762
0.354694
0.351812
0.348833
0.346076
0.34341
0.340949
0.338739
0.336667
0.334957
0.333239
0.376854
0.37841
0.381313
0.385102
0.388541
0.39252
0.396423
0.401044
0.40588
0.411438
0.417272
0.423649
0.430544
0.437675
0.445595
0.453245
0.461323
0.46831
0.451303
0.581997
0.685972
0.765412
0.822289
0.861986
0.886844
0.902538
0.911777
0.915945
0.915113
0.912824
0.907447
0.900841
0.892342
0.883959
0.875849
0.868081
4.06563e-06
3.18611e-05
8.18775e-05
0.000158975
0.000252651
0.000363527
0.000552653
0.000871117
0.001349
0.00197384
0.00265581
0.00333696
0.00397311
0.00452276
0.00500075
0.0053776
0.00567059
0.00586863
0.00599912
0.0059959
0.00595162
0.0058765
0.00568871
0.0053783
0.00493025
0.00433217
0.00358461
0.00272005
0.00181217
0.000992168
0.000410471
0.000119797
3.83164e-05
3.36652e-05
3.75116e-05
4.14422e-05
4.50525e-05
4.82084e-05
5.05728e-05
5.60498e-05
0.00010094
0.000216467
0.00049781
0.000941029
0.00135008
0.00163218
0.00166268
0.00160329
0.00147106
0.00135462
0.00130812
0.00146194
0.00204502
0.00221994
0.00265472
0.00349413
0.00607189
0.0184433
0.0385303
0.0589674
0.0784716
0.0967426
0.113932
0.130146
0.145635
0.160593
0.17444
0.187549
0.199829
0.211518
0.222599
0.233235
0.243429
0.253298
0.262836
0.272127
0.281157
0.289988
0.298598
0.307032
0.315307
0.323411
0.331362
0.339153
0.346783
0.354253
0.361551
0.36868
0.375626
0.382387
0.38895
0.39531
0.401457
0.407388
0.413099
0.418597
0.423897
0.429034
0.434059
0.438889
0.443526
0.447957
0.452183
0.456194
0.459986
0.463551
0.466885
0.469981
0.472837
0.475447
0.477812
0.479925
0.481792
0.483408
0.484787
0.485932
0.486875
0.487643
0.488309
0.488967
0.489548
0.488902
0.486969
0.487445
0.48486
0.484563
0.480894
0.479206
0.47706
0.474143
0.471757
0.46889
0.465947
0.462762
0.459435
0.455919
0.452285
0.448495
0.44456
0.440508
0.436357
0.432123
0.427783
0.423353
0.418881
0.414347
0.409781
0.405204
0.400621
0.396006
0.391382
0.386811
0.382442
0.377918
0.373499
0.36913
0.36509
0.360911
0.35701
0.353205
0.349543
0.346065
0.342881
0.3398
0.336968
0.334232
0.331789
0.329514
0.327643
0.325447
0.323844
0.322109
0.320387
0.319307
0.317723
0.316639
0.315242
0.313835
0.312758
0.310165
2.02257e-05
1.32918e-05
4.50116e-05
0.000116362
0.000296613
0.000859019
0.00202058
0.00383683
0.00603961
0.00833609
0.0105032
0.0123633
0.0137846
0.0147388
0.0153551
0.0155221
0.0154822
0.0152298
0.0148653
0.0143777
0.0136993
0.0128521
0.0118387
0.0106577
0.00936699
0.00794955
0.00653181
0.00517739
0.00391345
0.00276058
0.00180252
0.00109238
0.000631317
0.000364676
0.000220783
0.000148131
0.000115858
0.000118752
0.000168759
0.000206478
0.000769807
0.00155098
0.0033444
0.00583081
0.00786099
0.00903906
0.00908338
0.00873999
0.00792644
0.00788392
0.00863082
0.0111607
0.0158284
0.0214753
0.0305891
0.043705
0.0621007
0.0882481
0.116239
0.144144
0.173409
0.202103
0.231505
0.260361
0.289167
0.317202
0.344505
0.370857
0.396234
0.420637
0.444102
0.466723
0.488575
0.509778
0.530403
0.550507
0.570167
0.589434
0.60835
0.626954
0.645347
0.663478
0.681416
0.699142
0.716674
0.734009
0.751144
0.768075
0.784791
0.801283
0.817533
0.83352
0.849224
0.864619
0.879679
0.894372
0.908666
0.922531
0.935946
0.949068
0.961887
0.974401
0.986589
0.998435
1.00992
1.02103
1.03175
1.04205
1.05193
1.06137
1.07035
1.07887
1.08689
1.09443
1.10145
1.10797
1.11396
1.11943
1.12437
1.12877
1.1326
1.13583
1.13853
1.14087
1.14252
1.14395
1.14482
1.14572
1.1465
1.14432
1.14268
1.1411
1.13894
1.1363
1.1332
1.12968
1.12576
1.12148
1.11678
1.11176
1.10645
1.10084
1.0949
1.08873
1.08232
1.07574
1.06899
1.06211
1.05512
1.04802
1.04086
1.03373
1.02673
1.01962
1.01258
1.00562
0.998906
0.992203
0.985786
0.979582
0.973689
0.968324
0.963365
0.958665
0.95449
0.950692
0.947364
0.944499
0.942215
0.940392
0.939379
0.938041
0.93769
0.937903
0.938538
0.939666
0.940922
0.941883
0.942983
0.936642
2.41949e-05
1.09756e-05
4.93561e-05
0.00021274
0.000668735
0.00206202
0.0045086
0.00745167
0.0104557
0.0132492
0.0156656
0.017605
0.0190517
0.0200635
0.0206878
0.0209776
0.0209969
0.0208046
0.0205497
0.0201096
0.0195464
0.0188674
0.0180609
0.0171143
0.0160025
0.0147327
0.0132443
0.0115458
0.00972678
0.00788982
0.00610987
0.00451894
0.00310251
0.00207597
0.00140832
0.000987309
0.000773276
0.00062235
0.000754365
0.000881364
0.00287627
0.00540026
0.0109283
0.0162398
0.0200953
0.022138
0.023232
0.0242963
0.0261619
0.0309293
0.0402982
0.0550987
0.0744382
0.0944054
0.120573
0.148945
0.181811
0.216362
0.253533
0.292763
0.333308
0.374205
0.415188
0.455297
0.494309
0.531746
0.567547
0.601656
0.634172
0.665229
0.694999
0.723658
0.751373
0.778254
0.804442
0.830026
0.85509
0.879699
0.90393
0.927823
0.95141
0.974707
0.997739
1.02051
1.04303
1.06531
1.08734
1.10911
1.13063
1.1519
1.17289
1.19361
1.21405
1.23419
1.25404
1.27358
1.29282
1.31175
1.33035
1.3486
1.36647
1.38395
1.401
1.41761
1.43375
1.44939
1.46453
1.47912
1.49316
1.50662
1.51949
1.53173
1.54334
1.5543
1.56459
1.57419
1.5831
1.5913
1.59878
1.60553
1.61154
1.6168
1.62134
1.62517
1.62826
1.63072
1.63239
1.63319
1.63346
1.63276
1.63149
1.62961
1.62701
1.62376
1.61989
1.61541
1.61036
1.60481
1.59871
1.59214
1.58518
1.57777
1.56995
1.56179
1.5533
1.54457
1.53557
1.52638
1.51704
1.50754
1.49799
1.48839
1.47877
1.46913
1.45955
1.45005
1.44065
1.43146
1.42254
1.4139
1.40562
1.39784
1.39045
1.38343
1.37694
1.37094
1.36546
1.36051
1.35622
1.3525
1.34951
1.34706
1.34543
1.3443
1.34396
1.34427
1.34498
1.34557
1.34556
1.34086
2.36155e-05
2.45297e-05
0.000162745
0.000768997
0.00220297
0.0055507
0.00975245
0.0139513
0.0177332
0.0208797
0.023316
0.0250571
0.0261673
0.0267636
0.0269283
0.0268401
0.0265695
0.0260895
0.025506
0.0248445
0.0241231
0.0233439
0.0225006
0.0215835
0.0205707
0.0194419
0.0181679
0.0167239
0.0151006
0.013321
0.0114521
0.00957132
0.00781709
0.00614107
0.00473062
0.00358025
0.00290866
0.00234946
0.00293027
0.00400632
0.0105474
0.0203734
0.0306868
0.0384254
0.0434266
0.0463753
0.0513396
0.0625067
0.0782861
0.0951824
0.113932
0.134702
0.157048
0.184757
0.218158
0.254761
0.296431
0.339751
0.385269
0.431338
0.477552
0.523224
0.568056
0.611671
0.653923
0.694674
0.733915
0.771683
0.808075
0.843206
0.877216
0.910236
0.94239
0.973763
1.00448
1.0346
1.06422
1.0934
1.12217
1.15058
1.17865
1.2064
1.23385
1.26101
1.28788
1.31448
1.3408
1.36684
1.3926
1.41808
1.44327
1.46817
1.49277
1.51706
1.54104
1.56469
1.588
1.61096
1.63352
1.65568
1.67739
1.69863
1.71938
1.7396
1.75926
1.77835
1.79683
1.81468
1.83187
1.84839
1.8642
1.87928
1.89361
1.90717
1.91995
1.93191
1.94305
1.95336
1.9628
1.97138
1.97908
1.9859
1.99184
1.99689
2.00106
2.00434
2.00672
2.00809
2.00867
2.00862
2.00766
2.00583
2.00316
1.99973
1.99555
1.99066
1.98509
1.97886
1.97199
1.96456
1.95658
1.94807
1.93907
1.92963
1.91978
1.90957
1.89901
1.88818
1.8771
1.86583
1.85441
1.84286
1.83123
1.81954
1.80784
1.79618
1.78461
1.77322
1.76203
1.75111
1.74052
1.73034
1.72058
1.71123
1.70238
1.69405
1.68624
1.679
1.67241
1.66645
1.66123
1.65671
1.65297
1.65004
1.64793
1.64663
1.64593
1.64535
1.64409
1.63998
3.03369e-05
8.06596e-05
0.000555816
0.00212922
0.00613646
0.0121862
0.0180392
0.023018
0.0268488
0.0295236
0.0312093
0.0320996
0.0323937
0.0322968
0.0319501
0.0313473
0.0306285
0.0298408
0.0290188
0.028183
0.0273421
0.026494
0.0256274
0.0247289
0.0237774
0.0227509
0.0216242
0.020373
0.018984
0.0174424
0.015756
0.0139748
0.0121998
0.0104962
0.0089911
0.0078011
0.00663672
0.00703424
0.010116
0.0192301
0.0367969
0.0539181
0.0673584
0.0773495
0.0863195
0.0968105
0.109054
0.122747
0.137611
0.154822
0.175759
0.203114
0.235292
0.273156
0.315258
0.359789
0.406458
0.453535
0.501121
0.548469
0.59549
0.64197
0.687788
0.732775
0.776821
0.819838
0.861781
0.902642
0.942457
0.981274
1.01916
1.05621
1.09248
1.12807
1.16304
1.19746
1.23139
1.26487
1.29794
1.33063
1.36295
1.39494
1.42659
1.45792
1.48894
1.51964
1.55003
1.58012
1.60989
1.63934
1.66847
1.69728
1.72575
1.75387
1.78162
1.80901
1.83599
1.86256
1.88869
1.91434
1.9395
1.96412
1.98818
2.01164
2.03448
2.05667
2.07818
2.09897
2.11902
2.13831
2.1568
2.17448
2.19132
2.20729
2.22237
2.23655
2.24979
2.26209
2.27343
2.28378
2.29315
2.30152
2.30889
2.31524
2.32058
2.3249
2.3282
2.33048
2.3317
2.33207
2.33163
2.33014
2.32769
2.32435
2.32013
2.31509
2.30924
2.30262
2.29526
2.28722
2.27851
2.26917
2.25925
2.24878
2.2378
2.22633
2.21444
2.20217
2.18956
2.17667
2.16353
2.15017
2.13664
2.12299
2.10926
2.0955
2.08177
2.06813
2.05464
2.04136
2.02835
2.01567
2.00337
1.99147
1.98002
1.96907
1.95862
1.94873
1.93946
1.93083
1.92293
1.91579
1.90948
1.90405
1.89952
1.89589
1.89298
1.89046
1.8874
1.88257
2.54198e-05
0.000238157
0.0016021
0.00573503
0.0141341
0.022131
0.028352
0.0326533
0.0352806
0.0366708
0.0372094
0.0371563
0.0367896
0.0360648
0.0351808
0.0342083
0.0332028
0.0322029
0.0312325
0.0303028
0.0294144
0.028558
0.027718
0.0268756
0.0260067
0.0250862
0.0240847
0.0229832
0.0217696
0.0204327
0.0189718
0.0174134
0.015807
0.0141801
0.0123777
0.0119167
0.0135192
0.0203366
0.0365975
0.0595744
0.0820909
0.100449
0.113875
0.123718
0.132115
0.141139
0.151904
0.165467
0.184505
0.209646
0.240405
0.277069
0.317973
0.362104
0.40794
0.454542
0.501595
0.548642
0.595735
0.642724
0.689613
0.736338
0.782817
0.82894
0.874593
0.919675
0.964101
1.00781
1.05079
1.09303
1.13457
1.17542
1.21564
1.25527
1.29437
1.33296
1.3711
1.40881
1.44612
1.48304
1.51958
1.55577
1.59161
1.62709
1.66223
1.69703
1.73148
1.76558
1.79933
1.83272
1.86575
1.89841
1.93068
1.96255
1.994
2.02503
2.0556
2.0857
2.1153
2.14438
2.17289
2.20082
2.22812
2.25476
2.28071
2.30593
2.3304
2.35408
2.37694
2.39895
2.42009
2.44033
2.45964
2.478
2.49538
2.51176
2.52712
2.54143
2.55468
2.56685
2.57793
2.58791
2.59677
2.60451
2.61112
2.6166
2.62095
2.62419
2.62631
2.62728
2.62735
2.62635
2.62425
2.62113
2.61701
2.61194
2.60595
2.59907
2.59135
2.58281
2.57349
2.56342
2.55266
2.54124
2.52919
2.51655
2.50338
2.48971
2.47559
2.46108
2.44622
2.43103
2.41558
2.39991
2.38407
2.36811
2.35208
2.33606
2.3201
2.30427
2.28864
2.27326
2.25818
2.24345
2.22911
2.21521
2.20178
2.18887
2.17653
2.16481
2.1538
2.14356
2.13416
2.12568
2.11815
2.11158
2.10586
2.10073
2.09534
2.08878
5.07942e-05
0.000737316
0.0043746
0.0140923
0.0249705
0.0327567
0.0375436
0.0401689
0.0413952
0.041702
0.0414519
0.0407628
0.0397516
0.0385789
0.0373307
0.0360732
0.0348541
0.033704
0.0326381
0.0316588
0.0307581
0.0299196
0.0291223
0.028341
0.0275446
0.0267032
0.0257738
0.0247357
0.0235795
0.0222947
0.0208749
0.0193588
0.018102
0.0176155
0.0186659
0.0238043
0.0364998
0.0588634
0.0854488
0.109871
0.129385
0.142379
0.150022
0.155558
0.161916
0.171838
0.187671
0.209747
0.237904
0.271807
0.310409
0.352587
0.396783
0.442008
0.487627
0.533448
0.579423
0.625533
0.671853
0.718407
0.765218
0.812259
0.859461
0.906724
0.953926
1.00095
1.04769
1.09406
1.14
1.18548
1.23048
1.275
1.31904
1.36263
1.40578
1.44851
1.49084
1.53278
1.57435
1.61555
1.65637
1.69683
1.73692
1.77665
1.816
1.85497
1.89356
1.93176
1.96956
2.00696
2.04394
2.0805
2.11662
2.15229
2.18749
2.2222
2.2564
2.29008
2.3232
2.35573
2.38765
2.41892
2.4495
2.47934
2.50843
2.53672
2.56417
2.59076
2.61644
2.6412
2.665
2.68781
2.70961
2.73037
2.75006
2.76866
2.78616
2.80251
2.81771
2.83173
2.84456
2.85618
2.86658
2.87575
2.88369
2.8904
2.89586
2.90011
2.90315
2.90494
2.90556
2.90508
2.9034
2.90056
2.89662
2.89159
2.88552
2.87844
2.87038
2.86139
2.8515
2.84075
2.82917
2.8168
2.80368
2.78986
2.77538
2.76029
2.74463
2.72845
2.71179
2.6947
2.67723
2.65943
2.64134
2.62303
2.60455
2.58597
2.56735
2.54877
2.53028
2.51196
2.49385
2.47601
2.45849
2.44133
2.42457
2.40828
2.3925
2.3773
2.36276
2.34896
2.336
2.32396
2.31291
2.30287
2.2938
2.28549
2.27723
2.26816
0.000462281
0.00219569
0.0103967
0.0252921
0.035541
0.0414052
0.0444967
0.0458924
0.0461765
0.0457833
0.0448332
0.0435274
0.0420353
0.0404658
0.038903
0.0374079
0.0360202
0.0347608
0.0336341
0.0326316
0.0317351
0.0309203
0.0301591
0.029418
0.0286544
0.0278225
0.0269036
0.0259011
0.024877
0.0239109
0.0231604
0.0230038
0.0242334
0.0286833
0.0385649
0.0575107
0.0826493
0.108387
0.131734
0.149611
0.160752
0.166453
0.170047
0.176421
0.188297
0.206606
0.231184
0.26158
0.296892
0.336032
0.377714
0.42089
0.46467
0.508722
0.552958
0.597436
0.642237
0.687455
0.733179
0.779471
0.826356
0.873817
0.921783
0.970158
1.01883
1.06768
1.1166
1.16548
1.21424
1.26281
1.31116
1.35923
1.40702
1.45451
1.5017
1.54857
1.59513
1.64136
1.68727
1.73283
1.77804
1.82288
1.86736
1.91144
1.95514
1.99842
2.04128
2.0837
2.12568
2.1672
2.20825
2.24882
2.28889
2.32845
2.36749
2.40598
2.4439
2.48124
2.51797
2.55405
2.58944
2.62412
2.65803
2.69114
2.7234
2.75479
2.78525
2.81477
2.84329
2.8708
2.89726
2.92264
2.94692
2.97008
2.99207
3.01289
3.03251
3.05089
3.06802
3.08388
3.09845
3.11172
3.12366
3.13427
3.14354
3.15147
3.15806
3.16332
3.16727
3.1699
3.17114
3.1712
3.16995
3.16743
3.16368
3.15872
3.15258
3.14531
3.13694
3.12751
3.11705
3.1056
3.09319
3.07986
3.06566
3.05062
3.03479
3.01822
3.00095
2.98303
2.9645
2.94541
2.92582
2.90576
2.8853
2.8645
2.8434
2.82209
2.80062
2.77908
2.75753
2.73603
2.71465
2.69344
2.67245
2.65174
2.63135
2.61134
2.59177
2.57271
2.55426
2.53652
2.51959
2.50358
2.48856
2.4746
2.46171
2.44973
2.4381
2.42591
0.00179668
0.005352
0.0204742
0.0356452
0.0440847
0.0484092
0.0503795
0.050875
0.0504455
0.049327
0.0477505
0.0459264
0.0439972
0.0420754
0.0402435
0.0385563
0.0370438
0.0357147
0.0345609
0.0335625
0.0326922
0.0319182
0.0312063
0.0305239
0.029833
0.0291509
0.0285025
0.0279876
0.0277814
0.0281785
0.0299111
0.0340289
0.0424405
0.0577753
0.0786426
0.101702
0.12475
0.144867
0.160028
0.169405
0.17462
0.179522
0.187947
0.202239
0.222746
0.24917
0.280622
0.316085
0.354467
0.394863
0.436365
0.478372
0.520589
0.563028
0.605792
0.649012
0.692816
0.737319
0.782622
0.828789
0.875841
0.923756
0.972484
1.02194
1.07203
1.12263
1.17362
1.22491
1.27638
1.32796
1.37957
1.43115
1.48266
1.53405
1.58529
1.63635
1.6872
1.7378
1.78814
1.83818
1.88789
1.93726
1.98625
2.03485
2.08304
2.13078
2.17806
2.22485
2.27114
2.31692
2.36216
2.40686
2.451
2.49456
2.53753
2.5799
2.62164
2.66272
2.70313
2.74281
2.78174
2.81987
2.85716
2.89355
2.92901
2.9635
2.99698
3.02941
3.06075
3.09098
3.12006
3.14797
3.17468
3.20017
3.22441
3.24738
3.26905
3.2894
3.3084
3.32603
3.34228
3.35712
3.37055
3.38254
3.39308
3.40218
3.40984
3.41607
3.42087
3.42426
3.42617
3.42672
3.42589
3.42368
3.4201
3.41518
3.40897
3.40149
3.39279
3.3829
3.37185
3.35968
3.34642
3.33211
3.31679
3.30049
3.28327
3.26517
3.24623
3.2265
3.20603
3.18486
3.16305
3.14064
3.11769
3.09426
3.07041
3.04621
3.02174
2.99706
2.97224
2.94736
2.92248
2.89766
2.87295
2.84841
2.82411
2.80009
2.77644
2.75322
2.73055
2.70853
2.68729
2.66695
2.64761
2.62936
2.61227
2.59621
2.58081
2.56501
0.00400899
0.0105301
0.0310463
0.044857
0.0516557
0.0548323
0.0559116
0.0556547
0.054514
0.0527399
0.0506033
0.0482929
0.045963
0.0437318
0.0416805
0.0398561
0.0382761
0.0369372
0.0358208
0.0348974
0.0341363
0.0335052
0.0329772
0.0325483
0.0322707
0.0322012
0.0325148
0.0335472
0.0357385
0.0400161
0.0479632
0.0604452
0.076942
0.0957695
0.115716
0.134782
0.151191
0.163652
0.172248
0.17877
0.186168
0.197438
0.214053
0.236398
0.263805
0.295328
0.329984
0.367018
0.405631
0.445182
0.485194
0.525458
0.565977
0.60688
0.648325
0.690466
0.733445
0.77739
0.822395
0.868515
0.91578
0.964183
1.01368
1.06422
1.11569
1.168
1.22104
1.27468
1.32883
1.38338
1.43825
1.49334
1.54858
1.60391
1.65926
1.71457
1.76978
1.82485
1.87972
1.93435
1.98869
2.0427
2.09635
2.14961
2.20242
2.25477
2.30661
2.35792
2.40865
2.4588
2.50835
2.55728
2.60558
2.65323
2.70022
2.74653
2.79214
2.83702
2.88115
2.92447
2.96695
3.00854
3.04919
3.08885
3.12748
3.16503
3.20146
3.23674
3.27082
3.30368
3.33529
3.36561
3.39464
3.42234
3.4487
3.47369
3.49728
3.51946
3.5402
3.55948
3.57727
3.59356
3.60834
3.62158
3.63328
3.64344
3.65205
3.65914
3.6647
3.66874
3.67125
3.67224
3.67178
3.66982
3.66636
3.66144
3.6551
3.64738
3.6383
3.62792
3.61624
3.60332
3.58917
3.57384
3.55736
3.53977
3.52111
3.50143
3.48077
3.45918
3.4367
3.41337
3.38926
3.3644
3.33887
3.3127
3.28598
3.25876
3.23112
3.20314
3.17489
3.14644
3.11786
3.08921
3.06056
3.03198
3.00353
2.97527
2.94728
2.91965
2.8925
2.86595
2.84014
2.8152
2.79126
2.76842
2.74683
2.72636
2.7069
2.68711
0.00638399
0.0175552
0.0409098
0.052967
0.0586365
0.0610094
0.0614052
0.0604967
0.0587079
0.0563594
0.0537095
0.0509712
0.0483127
0.0458566
0.0436798
0.0418202
0.0402835
0.0390576
0.0381227
0.0374346
0.0369781
0.036771
0.0367663
0.0370974
0.0379275
0.0395155
0.0423434
0.0472293
0.054695
0.0650285
0.0778815
0.092739
0.108866
0.12511
0.140319
0.153453
0.164102
0.172859
0.18132
0.191653
0.205657
0.224427
0.247938
0.275566
0.306473
0.339866
0.375125
0.41169
0.449085
0.486975
0.525183
0.563707
0.602659
0.642204
0.682515
0.723755
0.766074
0.80959
0.854395
0.900557
0.948114
0.997074
1.04741
1.09907
1.15198
1.20604
1.26114
1.31718
1.37404
1.43161
1.48978
1.54844
1.60749
1.66683
1.72637
1.78601
1.84567
1.90529
1.96479
2.02409
2.08315
2.14191
2.20032
2.25834
2.31591
2.37298
2.42951
2.48543
2.5407
2.59531
2.64923
2.70244
2.75494
2.80671
2.85774
2.90801
2.95749
3.00616
3.05397
3.10089
3.14686
3.19184
3.23577
3.2786
3.32028
3.36077
3.40002
3.438
3.47467
3.50999
3.54394
3.57649
3.60763
3.63735
3.66561
3.69241
3.71772
3.74152
3.76378
3.78449
3.80362
3.82116
3.83709
3.8514
3.86407
3.8751
3.8845
3.89228
3.89844
3.903
3.90595
3.90732
3.90711
3.90532
3.90189
3.89688
3.89034
3.88231
3.87281
3.86188
3.84954
3.83582
3.82075
3.80436
3.78668
3.76776
3.74763
3.72633
3.70391
3.68041
3.65586
3.63033
3.60385
3.57649
3.54828
3.5193
3.48959
3.45925
3.42833
3.39692
3.36509
3.33292
3.30048
3.26784
3.23508
3.20227
3.16949
3.13681
3.1043
3.07208
3.04027
3.009
2.97842
2.94868
2.91993
2.8923
2.86599
2.84086
2.81711
2.79309
0.00830704
0.0257189
0.0493758
0.0606338
0.0656468
0.067387
0.067204
0.0657155
0.0633739
0.0605314
0.0574761
0.0544413
0.0516049
0.0490914
0.0469728
0.045281
0.0440188
0.0431584
0.0427306
0.0426168
0.0428412
0.0435642
0.0449263
0.0471732
0.0506068
0.0555417
0.0622109
0.0705794
0.0806697
0.0922559
0.104878
0.117963
0.130855
0.142943
0.153902
0.16389
0.173642
0.18435
0.197386
0.213818
0.234128
0.258203
0.285474
0.315284
0.347063
0.380307
0.414639
0.449744
0.485392
0.521455
0.557921
0.594877
0.632472
0.670879
0.710277
0.750826
0.792667
0.835925
0.880698
0.927062
0.975068
1.02474
1.07606
1.12899
1.18347
1.23942
1.29673
1.35529
1.41499
1.4757
1.53729
1.59965
1.66264
1.72611
1.78994
1.85401
1.91821
1.98245
2.04664
2.11068
2.17452
2.23807
2.30129
2.36412
2.42649
2.48834
2.54958
2.61015
2.66998
2.72904
2.7873
2.84476
2.90142
2.95725
3.01225
3.06639
3.11964
3.17196
3.22332
3.27367
3.32297
3.37115
3.41816
3.46395
3.50846
3.55165
3.59347
3.6339
3.67288
3.71039
3.74639
3.78088
3.81384
3.84525
3.87512
3.90342
3.93013
3.95525
3.97874
4.00058
4.02077
4.03928
4.05609
4.07119
4.08458
4.09624
4.10619
4.11443
4.12099
4.12587
4.1291
4.13068
4.13059
4.12888
4.12534
4.12013
4.11331
4.10488
4.09489
4.08336
4.0703
4.05575
4.03971
4.02223
4.00333
3.98305
3.96142
3.93848
3.91426
3.88882
3.86218
3.8344
3.80552
3.77559
3.74466
3.7128
3.68006
3.64651
3.61223
3.57729
3.54178
3.50579
3.46937
3.43263
3.39563
3.35847
3.32123
3.284
3.24687
3.20994
3.17335
3.13725
3.10178
3.06711
3.03343
3.00087
2.9697
2.93978
2.91157
2.88325
0.00952433
0.0331807
0.0574323
0.068304
0.0728703
0.0741586
0.073508
0.0715352
0.0687566
0.0655782
0.0623213
0.0592322
0.0564878
0.0542076
0.0524659
0.0512873
0.0507308
0.0506271
0.0510448
0.0520533
0.053729
0.0561996
0.0596022
0.0640717
0.0697067
0.0765415
0.0845157
0.0934888
0.103273
0.113577
0.124077
0.134499
0.144713
0.154825
0.16521
0.176445
0.189333
0.204608
0.222809
0.244052
0.268124
0.294591
0.322985
0.352905
0.384009
0.416031
0.448785
0.482134
0.516003
0.550389
0.585359
0.621038
0.657587
0.695173
0.733967
0.77413
0.815805
0.85911
0.904147
0.951001
0.999736
1.05039
1.10295
1.15742
1.21374
1.27184
1.33163
1.39298
1.45578
1.51989
1.58516
1.65145
1.71858
1.78636
1.85462
1.9232
1.99197
2.06082
2.12966
2.19839
2.26694
2.33522
2.40319
2.47075
2.53785
2.60438
2.67026
2.73539
2.79967
2.86304
2.9255
2.98703
3.04766
3.10735
3.1661
3.22387
3.28062
3.33632
3.39092
3.4444
3.49668
3.54771
3.59744
3.6458
3.69275
3.73824
3.78224
3.8247
3.86559
3.90486
3.94251
3.9785
4.01284
4.04553
4.07657
4.10595
4.13366
4.15968
4.184
4.20659
4.22745
4.24656
4.2639
4.27946
4.29323
4.30522
4.31542
4.32385
4.33054
4.33552
4.3388
4.34041
4.3403
4.33851
4.33472
4.3292
4.32198
4.31308
4.30253
4.29033
4.27651
4.26108
4.24405
4.22545
4.20531
4.18364
4.1605
4.13589
4.10987
4.08247
4.05373
4.02368
3.99239
3.95988
3.92622
3.89145
3.85564
3.81886
3.78117
3.74267
3.70343
3.66354
3.6231
3.58218
3.54088
3.49929
3.45752
3.41567
3.37384
3.33215
3.29074
3.24976
3.20936
3.16973
3.13105
3.0935
3.05742
3.02267
2.98988
2.95735
0.0103032
0.040119
0.0654652
0.0762464
0.0804808
0.0814232
0.0803617
0.0779927
0.0749226
0.0716268
0.0684577
0.0656539
0.0633639
0.0616745
0.0607186
0.0604038
0.0606369
0.0615645
0.0631639
0.0654739
0.0685306
0.0723839
0.0770613
0.082566
0.0888668
0.0958871
0.103524
0.11167
0.120212
0.129074
0.138267
0.147927
0.158301
0.169683
0.182495
0.197166
0.214048
0.233282
0.254818
0.278417
0.303788
0.330622
0.358644
0.387641
0.417452
0.447968
0.479129
0.510916
0.54335
0.576498
0.610459
0.645358
0.681347
0.718592
0.75726
0.797508
0.839484
0.883322
0.929112
0.976949
1.02691
1.07904
1.13337
1.18988
1.24854
1.30929
1.37203
1.43664
1.50297
1.57087
1.64017
1.71068
1.78216
1.85438
1.92711
2.00015
2.07335
2.14662
2.21986
2.29302
2.36603
2.4388
2.51125
2.58329
2.65483
2.72578
2.796
2.86537
2.93378
3.00113
3.06743
3.13268
3.19688
3.26003
3.32208
3.38301
3.44277
3.50133
3.55865
3.61468
3.66938
3.72268
3.77453
3.82488
3.87367
3.92086
3.96642
4.01032
4.0525
4.09295
4.13164
4.16856
4.2037
4.23709
4.26873
4.29863
4.32679
4.35319
4.37782
4.40068
4.42174
4.441
4.45844
4.47404
4.48782
4.49975
4.50986
4.51816
4.52469
4.52948
4.53257
4.534
4.53372
4.53165
4.52746
4.5215
4.51378
4.50432
4.49313
4.48022
4.4656
4.44926
4.43121
4.41148
4.39008
4.36704
4.34237
4.31612
4.2883
4.25896
4.22813
4.19584
4.16215
4.12709
4.09071
4.05305
4.01419
3.97418
3.93309
3.89102
3.84805
3.80427
3.75979
3.7147
3.66908
3.62304
3.57671
3.53022
3.48368
3.43723
3.39102
3.34519
3.29989
3.25531
3.21166
3.16915
3.12818
3.08862
3.05121
3.01463
0.0106952
0.0467228
0.0733219
0.0842407
0.0882872
0.0889677
0.0875342
0.0848434
0.0816038
0.0783939
0.0756134
0.0734508
0.0719409
0.0712021
0.0710323
0.071519
0.0727192
0.074585
0.0770953
0.08025
0.0840493
0.0884745
0.0934999
0.0990945
0.105225
0.111864
0.119012
0.126701
0.135015
0.144098
0.154125
0.165294
0.177838
0.191972
0.207892
0.225696
0.245351
0.26673
0.289678
0.31399
0.33944
0.365862
0.393134
0.421166
0.449904
0.479337
0.509484
0.540388
0.572115
0.604759
0.638431
0.673273
0.709438
0.747097
0.786418
0.827571
0.870734
0.915981
0.963359
1.01301
1.06504
1.11949
1.17639
1.23575
1.29753
1.36167
1.42808
1.49659
1.56704
1.63922
1.7129
1.78778
1.8636
1.94011
2.01707
2.09421
2.17131
2.24838
2.32537
2.40239
2.47929
2.55599
2.63237
2.70832
2.78371
2.85843
2.93235
3.00531
3.07719
3.14788
3.21738
3.28568
3.35277
3.41864
3.48324
3.54654
3.60851
3.66911
3.7283
3.78605
3.8423
3.89702
3.95013
4.00159
4.05136
4.09939
4.14567
4.19015
4.23281
4.27363
4.31256
4.34962
4.3848
4.41814
4.44965
4.47938
4.50731
4.53344
4.55778
4.5803
4.60101
4.61988
4.63691
4.65209
4.66542
4.67689
4.68651
4.69432
4.70035
4.70464
4.70728
4.70829
4.70767
4.7051
4.70035
4.69384
4.68554
4.67546
4.66358
4.64992
4.63447
4.61721
4.59815
4.5773
4.55467
4.53027
4.50413
4.47626
4.44669
4.41546
4.38259
4.34812
4.31209
4.27453
4.2355
4.19502
4.15316
4.10998
4.06556
4.01998
3.97333
3.92572
3.87726
3.82804
3.77815
3.72771
3.67687
3.62578
3.57457
3.5234
3.47242
3.4218
3.37167
3.32224
3.27373
3.22638
3.18065
3.13642
3.09439
3.05385
0.010803
0.0534141
0.0811241
0.0921653
0.0959958
0.0963834
0.0944386
0.0913573
0.0881254
0.0853338
0.0832387
0.0819454
0.0814026
0.0813495
0.0819325
0.0831876
0.085063
0.0875213
0.0905354
0.0940884
0.0981678
0.102766
0.107887
0.113552
0.119808
0.126731
0.13443
0.14303
0.152669
0.163504
0.175676
0.189324
0.204532
0.221324
0.239712
0.259616
0.280894
0.30342
0.327073
0.351679
0.377116
0.403353
0.430352
0.458107
0.486638
0.515989
0.54622
0.577409
0.609646
0.643038
0.677706
0.713789
0.751443
0.79084
0.832147
0.875521
0.921106
0.968991
1.01929
1.07209
1.12744
1.18538
1.24593
1.30907
1.37477
1.44297
1.51356
1.58637
1.66119
1.73774
1.81562
1.89441
1.97396
2.0541
2.1346
2.21513
2.29545
2.37566
2.45575
2.53573
2.6155
2.69513
2.77447
2.85329
2.93144
3.00879
3.08522
3.1606
3.23481
3.30777
3.37938
3.44961
3.51842
3.58579
3.6517
3.71613
3.77905
3.84042
3.90024
3.95845
4.01503
4.06993
4.1231
4.17448
4.22404
4.27175
4.31761
4.36158
4.40365
4.4438
4.48198
4.51819
4.55246
4.58485
4.6154
4.64413
4.67107
4.69622
4.71958
4.74114
4.76089
4.77882
4.79493
4.8092
4.82164
4.83224