/*--------------------------------*- C++ -*----------------------------------*\
| =========                 |                                                 |
| \\      /  F ield         | OpenFOAM: The Open Source CFD Toolbox           |
|  \\    /   O peration     | Version:  4.x                                   |
|   \\  /    A nd           | Web:      www.OpenFOAM.org                      |
|    \\/     M anipulation  |                                                 |
\*---------------------------------------------------------------------------*/
FoamFile
{
    version     2.0;
    format      ascii;
    class       volScalarField;
    location    "300";
    object      nut;
}
// * * * * * * * * * * * * * * * * * * * * * * * * * * * * * * * * * * * * * //

dimensions      [0 2 -1 0 0 0 0];

internalField   nonuniform List<scalar> 
12225
(
5.32585e-06
8.14513e-06
1.00341e-05
1.11555e-05
1.1664e-05
1.1832e-05
1.18672e-05
1.17391e-05
1.15646e-05
1.13829e-05
1.12064e-05
1.1037e-05
1.08932e-05
1.07468e-05
1.06494e-05
1.05156e-05
1.04768e-05
1.03508e-05
0.000144255
5.79915e-05
4.23073e-05
3.63359e-05
3.35435e-05
3.24766e-05
3.2165e-05
3.26121e-05
3.32271e-05
3.3009e-05
3.26201e-05
3.27983e-05
3.2699e-05
3.31044e-05
3.31751e-05
3.37445e-05
3.39725e-05
3.47476e-05
0.000716964
0.000313852
0.000211456
0.000160656
0.00013325
0.000113841
0.000102279
9.25697e-05
8.61466e-05
7.91034e-05
7.44234e-05
6.94028e-05
6.62283e-05
6.2689e-05
6.06194e-05
5.8075e-05
5.67922e-05
5.49936e-05
0.000894655
0.000669852
0.000545686
0.00044185
0.000380162
0.000327474
0.000295531
0.000264514
0.000245355
0.000223498
0.000210065
0.000194171
0.000184844
0.000173008
0.000166507
0.000157508
0.000153031
0.000145874
0.000876391
0.000812021
0.000769874
0.000696038
0.000642417
0.000583988
0.000544536
0.000501563
0.000473714
0.000441719
0.000421415
0.000396787
0.000381874
0.00036255
0.000351638
0.000336143
0.000328296
0.000315317
0.000859236
0.000844491
0.000833593
0.000811292
0.000787476
0.000753553
0.00072743
0.00069441
0.000670505
0.000641785
0.000621995
0.000597956
0.000582264
0.000562168
0.000549974
0.000532863
0.000523625
0.000508568
0.000853188
0.000849746
0.000846636
0.000841312
0.000833473
0.000823459
0.00081287
0.000796967
0.000784102
0.000767156
0.000754382
0.000738411
0.000727102
0.000712639
0.000703072
0.000689927
0.000682064
0.000669875
0.000852005
0.000850148
0.000848851
0.000846567
0.000844094
0.00084004
0.00083568
0.000829963
0.000823848
0.000815428
0.000808426
0.000799537
0.00079272
0.000784042
0.000777783
0.000769464
0.000763883
0.000755662
0.000851719
0.000850296
0.000849346
0.000848011
0.00084682
0.000844961
0.000843097
0.000840551
0.000837896
0.00083459
0.000831022
0.000827026
0.000823173
0.000818748
0.000814992
0.000810555
0.000806901
0.000802278
0.000851622
0.000850459
0.000849541
0.000848532
0.000847663
0.000846562
0.00084553
0.00084426
0.000842977
0.000841428
0.000839926
0.000838094
0.00083649
0.000834482
0.000832851
0.000830662
0.000829058
0.000826667
0.000851576
0.000850566
0.00084967
0.000848777
0.000847987
0.000847121
0.000846339
0.000845476
0.000844684
0.000843767
0.000842949
0.000841981
0.000841156
0.000840158
0.000839342
0.00083832
0.000837515
0.000836454
0.000851557
0.000850623
0.000849753
0.000848914
0.000848149
0.00084737
0.000846655
0.000845926
0.000845261
0.000844567
0.000843935
0.000843268
0.000842667
0.000842028
0.000841457
0.000840842
0.000840299
0.000839695
0.000851548
0.000850653
0.000849802
0.000848992
0.000848237
0.000847499
0.000846804
0.000846127
0.000845492
0.00084487
0.000844285
0.000843709
0.000843168
0.000842636
0.000842135
0.000841641
0.000841177
0.00084071
0.000851544
0.000850668
0.000849829
0.000849035
0.000848285
0.000847565
0.00084688
0.000846224
0.0008456
0.000845001
0.00084443
0.000843882
0.000843359
0.000842856
0.000842376
0.000841913
0.000841473
0.000841044
0.00085154
0.000850672
0.000849842
0.000849055
0.000848309
0.000847596
0.000846917
0.000846268
0.000845649
0.000845058
0.000844494
0.000843953
0.000843437
0.000842942
0.00084247
0.000842016
0.000841583
0.000841165
0.000851537
0.000850674
0.000849848
0.000849065
0.00084832
0.00084761
0.000846934
0.000846287
0.000845671
0.000845082
0.00084452
0.000843982
0.000843468
0.000842976
0.000842505
0.000842054
0.000841623
0.000841209
0.000851538
0.000850676
0.000849855
0.000849072
0.000848328
0.000847618
0.000846942
0.000846296
0.00084568
0.000845092
0.00084453
0.000843993
0.000843479
0.000842988
0.000842518
0.000842068
0.000841637
0.000841225
0.000851538
0.000850676
0.000849854
0.000849071
0.000848326
0.000847616
0.000846938
0.000846292
0.000845675
0.000845085
0.000844522
0.000843984
0.000843469
0.000842976
0.000842505
0.000842054
0.000841623
0.00084121
0.000851537
0.000850672
0.000849849
0.000849065
0.000848318
0.000847606
0.000846927
0.00084628
0.000845661
0.000845071
0.000844506
0.000843967
0.000843451
0.000842957
0.000842485
0.000842033
0.0008416
0.000841186
0.000851537
0.000850674
0.000849849
0.000849066
0.000848319
0.000847607
0.000846928
0.000846279
0.00084566
0.000845068
0.000844503
0.000843961
0.000843443
0.000842947
0.000842472
0.000842017
0.000841582
0.000841164
0.000851538
0.000850674
0.000849843
0.000849058
0.000848309
0.000847596
0.000846911
0.000846259
0.000845634
0.000845037
0.000844463
0.000843915
0.000843386
0.000842881
0.000842394
0.000841926
0.000841475
0.000841043
0.000851537
0.000850673
0.000849825
0.000849038
0.000848277
0.000847557
0.000846852
0.000846186
0.00084553
0.000844907
0.000844287
0.000843697
0.000843104
0.00084254
0.000841968
0.000841426
0.000840871
0.000840348
0.000851501
0.000850681
0.000849786
0.000848982
0.000848169
0.000847393
0.000846571
0.000845787
0.000844938
0.00084411
0.000843203
0.000842317
0.000841346
0.000840411
0.000839378
0.000838409
0.000837316
0.000836342
0.000851293
0.000850883
0.000849707
0.000848677
0.000847446
0.000846115
0.000844502
0.000842871
0.000840923
0.000838886
0.00083645
0.000833968
0.000831203
0.000828419
0.000825445
0.000822385
0.000819291
0.000816453
0.000850759
0.000852287
0.000848827
0.000845799
0.000841394
0.000836405
0.00083064
0.000824412
0.000817218
0.000809873
0.000801439
0.000793603
0.00078496
0.000777202
0.000768706
0.000761324
0.000753136
0.000746322
0.00085293
0.000856374
0.000838953
0.000822653
0.000802148
0.000783315
0.000762095
0.000742486
0.000721316
0.0007026
0.00068309
0.000666431
0.000649191
0.000634827
0.000619775
0.000607551
0.000594393
0.000584076
0.000879252
0.000824145
0.000765086
0.000700448
0.000644328
0.000598899
0.000556791
0.000523069
0.000491545
0.000466727
0.000442952
0.000424471
0.000406172
0.000392166
0.000377751
0.000366952
0.000355316
0.000346846
0.000952031
0.000596608
0.000458548
0.000370472
0.000313342
0.00027468
0.000244999
0.000223865
0.000206259
0.000193425
0.000181921
0.000173572
0.000165577
0.000159913
0.000154114
0.000150145
0.000145779
0.00014286
0.00048914
0.000155493
0.000106502
8.63593e-05
7.48935e-05
6.77966e-05
6.31061e-05
6.01179e-05
5.80678e-05
5.68377e-05
5.60311e-05
5.57312e-05
5.56057e-05
5.58349e-05
5.60971e-05
5.59083e-05
5.53184e-05
5.4744e-05
6.25171e-06
8.12111e-06
9.65362e-06
1.08728e-05
1.17903e-05
1.24713e-05
1.29427e-05
1.32829e-05
1.35278e-05
1.36951e-05
1.37836e-05
1.38453e-05
1.38549e-05
1.384e-05
1.37902e-05
1.37368e-05
1.36829e-05
1.36295e-05
3.54664e-10
1.27697e-08
3.27786e-08
6.35622e-08
1.00878e-07
1.44936e-07
2.19928e-07
3.45792e-07
5.33728e-07
7.77837e-07
1.04215e-06
1.30395e-06
1.54638e-06
1.75409e-06
1.93329e-06
2.07335e-06
2.18125e-06
2.25314e-06
2.29962e-06
2.29618e-06
2.27716e-06
2.24732e-06
2.17496e-06
2.05711e-06
1.88767e-06
1.66152e-06
1.37812e-06
1.04884e-06
7.00997e-07
3.84876e-07
1.59499e-07
4.65646e-08
1.48827e-08
1.30614e-08
1.45366e-08
1.60408e-08
1.74173e-08
1.8615e-08
1.95043e-08
2.15895e-08
3.88273e-08
8.31191e-08
1.90662e-07
3.59229e-07
5.13747e-07
6.19483e-07
6.30139e-07
6.07011e-07
5.56557e-07
5.12116e-07
4.94006e-07
5.50994e-07
7.67675e-07
8.31487e-07
9.90988e-07
1.29772e-06
2.22696e-06
6.41827e-06
1.24309e-05
1.779e-05
2.2367e-05
2.59702e-05
2.75724e-05
2.89532e-05
3.02315e-05
3.14658e-05
3.25517e-05
3.35699e-05
3.4504e-05
3.53916e-05
3.62248e-05
3.70251e-05
3.7788e-05
3.85278e-05
3.92402e-05
3.99353e-05
4.06092e-05
4.12694e-05
4.1912e-05
4.2543e-05
4.31643e-05
4.37746e-05
4.43764e-05
4.49696e-05
4.55545e-05
4.6132e-05
4.67016e-05
4.72646e-05
4.78202e-05
4.83697e-05
4.89123e-05
4.94486e-05
4.9979e-05
5.05044e-05
5.10259e-05
5.15452e-05
5.2065e-05
5.25909e-05
5.31292e-05
5.36689e-05
5.42122e-05
5.47593e-05
5.53117e-05
5.58696e-05
5.64336e-05
5.7004e-05
5.75813e-05
5.81661e-05
5.8759e-05
5.93604e-05
5.99714e-05
6.05922e-05
6.12245e-05
6.18685e-05
6.25269e-05
6.3201e-05
6.38956e-05
6.46153e-05
6.53709e-05
6.61761e-05
6.70217e-05
6.77502e-05
6.83513e-05
6.93429e-05
6.99507e-05
7.09388e-05
7.14629e-05
7.12717e-05
7.09547e-05
7.05787e-05
7.02481e-05
6.98738e-05
6.94883e-05
6.9077e-05
6.86503e-05
6.82065e-05
6.7749e-05
6.72745e-05
6.6784e-05
6.62813e-05
6.57692e-05
6.52453e-05
6.47054e-05
6.41605e-05
6.36066e-05
6.30464e-05
6.24815e-05
6.19133e-05
6.13432e-05
6.07517e-05
6.01561e-05
5.9575e-05
5.90108e-05
5.84293e-05
5.78571e-05
5.72897e-05
5.67525e-05
5.61926e-05
5.56628e-05
5.51309e-05
5.46124e-05
5.41287e-05
5.36604e-05
5.32024e-05
5.27668e-05
5.2337e-05
5.19418e-05
5.15465e-05
5.12444e-05
5.08397e-05
5.05756e-05
5.02395e-05
4.98909e-05
4.96725e-05
4.93391e-05
4.9106e-05
4.88164e-05
4.85351e-05
4.829e-05
4.78893e-05
1.76435e-09
6.65344e-09
4.30103e-08
1.31936e-07
3.88928e-07
1.34398e-06
3.12627e-06
5.82831e-06
9.27271e-06
1.29923e-05
1.70307e-05
2.12999e-05
2.468e-05
2.74182e-05
2.95521e-05
3.06653e-05
3.11414e-05
3.09208e-05
2.99477e-05
2.88802e-05
2.57562e-05
2.21927e-05
1.80623e-05
1.42556e-05
1.10257e-05
8.31471e-06
6.17017e-06
4.49097e-06
3.19554e-06
2.16135e-06
1.41132e-06
8.72045e-07
5.32562e-07
3.42945e-07
2.4135e-07
1.92521e-07
1.76481e-07
2.09838e-07
3.22566e-07
4.245e-07
1.69969e-06
3.53995e-06
7.58058e-06
1.3003e-05
1.69213e-05
1.8734e-05
1.7857e-05
1.65371e-05
1.39047e-05
1.22208e-05
1.16716e-05
1.13008e-05
1.16735e-05
1.20701e-05
1.44726e-05
1.90375e-05
2.5707e-05
3.54549e-05
4.61365e-05
5.71751e-05
7.04194e-05
8.45369e-05
0.000100109
0.000116258
0.000133068
0.000149949
0.000166727
0.000183044
0.000198746
0.000213684
0.000227821
0.000241156
0.000253728
0.000265467
0.00027701
0.000287716
0.000298183
0.000308289
0.000318044
0.000327166
0.000336279
0.000345037
0.000353678
0.000362121
0.000370429
0.000378595
0.000386635
0.000394553
0.00040235
0.000410025
0.000417571
0.000424973
0.000432209
0.000439251
0.00044605
0.000452543
0.000458643
0.000464244
0.000469205
0.000474011
0.000478672
0.000483213
0.000487615
0.000491877
0.000495994
0.00049996
0.000503769
0.000507416
0.000510895
0.0005142
0.000517328
0.000520271
0.000523026
0.000525586
0.000527944
0.000530095
0.000532034
0.000533756
0.000535265
0.000536576
0.000537732
0.000538804
0.000539475
0.000540154
0.000540504
0.000540992
0.000541132
0.000541676
0.00054207
0.000541282
0.000540661
0.000540144
0.000539382
0.000538425
0.00053729
0.000535994
0.000534549
0.000532985
0.000531234
0.000529369
0.000527403
0.000525299
0.000523034
0.000520695
0.000518227
0.000515717
0.000513111
0.000510432
0.000507679
0.000504829
0.000501911
0.000498921
0.000496423
0.000493549
0.000490607
0.000487503
0.000484931
0.000482071
0.000479284
0.00047652
0.00047365
0.000471483
0.000469425
0.000466912
0.000464889
0.000462981
0.000461165
0.00045941
0.000458145
0.000456618
0.000455934
0.000454565
0.000453618
0.000453087
0.000452412
0.000452034
0.000451517
0.000450802
0.000450303
0.000443514
2.11059e-09
5.35689e-09
5.97471e-08
3.41053e-07
1.02051e-06
2.8952e-06
6.47502e-06
1.14412e-05
1.77718e-05
2.51534e-05
3.32117e-05
4.10226e-05
4.83232e-05
5.53345e-05
6.14796e-05
6.62742e-05
6.96794e-05
7.1762e-05
7.28046e-05
7.27985e-05
7.05524e-05
6.74396e-05
6.22105e-05
5.56665e-05
4.77756e-05
3.94973e-05
3.14734e-05
2.41379e-05
1.79999e-05
1.30736e-05
9.30052e-06
6.49309e-06
4.3295e-06
2.92605e-06
2.05941e-06
1.5582e-06
1.36347e-06
1.24523e-06
1.75455e-06
2.33407e-06
8.35012e-06
1.54657e-05
3.04605e-05
4.2696e-05
5.01743e-05
5.14214e-05
4.57673e-05
3.53084e-05
2.66809e-05
2.51142e-05
2.77744e-05
3.18818e-05
3.88409e-05
4.91155e-05
6.52483e-05
8.15128e-05
0.00010171
0.000125227
0.000153495
0.000186027
0.000222628
0.000260987
0.000301072
0.000340872
0.000380039
0.000417502
0.000453026
0.000486327
0.000517452
0.000546497
0.000573688
0.000599041
0.000623302
0.000646024
0.00066812
0.000689365
0.000709839
0.000729318
0.000748304
0.000766647
0.000784686
0.000802255
0.00081952
0.000836442
0.000853073
0.000869413
0.000885474
0.000901256
0.000916758
0.00093197
0.000946879
0.000961464
0.000975697
0.000989548
0.00100298
0.00101596
0.00102846
0.00104049
0.00105211
0.00106352
0.00107465
0.00108552
0.00109609
0.00110637
0.00111634
0.00112598
0.00113529
0.00114425
0.00115284
0.00116107
0.0011689
0.00117635
0.00118338
0.00118999
0.00119617
0.00120191
0.00120721
0.00121206
0.00121646
0.00122044
0.00122401
0.00122715
0.00122976
0.00123203
0.00123383
0.00123537
0.0012364
0.00123706
0.00123743
0.00123728
0.0012365
0.00123561
0.00123405
0.00123207
0.00122966
0.0012268
0.00122365
0.00122042
0.0012164
0.00121215
0.00120794
0.00120344
0.0011982
0.00119311
0.00118739
0.00118184
0.00117603
0.00117009
0.00116401
0.00115758
0.00115145
0.001145
0.00113893
0.00113248
0.00112584
0.001119
0.00111224
0.00110578
0.00109945
0.00109325
0.00108711
0.0010817
0.00107677
0.00107112
0.00106603
0.00106125
0.00105659
0.00105214
0.00104833
0.00104446
0.00104156
0.00103845
0.00103583
0.00103361
0.00103149
0.00102975
0.00102791
0.00102571
0.00102289
0.00101015
2.06005e-09
1.21318e-08
1.727e-07
8.13723e-07
2.36045e-06
6.58645e-06
1.3517e-05
2.29743e-05
3.45088e-05
4.7099e-05
5.97983e-05
7.21307e-05
8.3406e-05
9.30165e-05
0.000100618
0.000106499
0.000110754
0.000113159
0.000114091
0.0001137
0.000112057
0.000108696
0.000104112
9.8584e-05
9.10681e-05
8.19092e-05
7.14589e-05
6.02698e-05
4.9097e-05
3.89158e-05
3.0237e-05
2.31679e-05
1.76708e-05
1.32643e-05
1.01071e-05
7.75676e-06
6.56845e-06
5.67852e-06
7.87218e-06
1.09886e-05
2.70051e-05
4.34153e-05
5.67455e-05
6.39851e-05
6.54013e-05
5.39054e-05
4.76333e-05
4.93947e-05
5.36044e-05
5.88533e-05
6.86733e-05
8.44164e-05
0.000103652
0.000124775
0.000156529
0.000188236
0.000231416
0.0002779
0.000331152
0.000386873
0.000445185
0.000503247
0.000560816
0.00061624
0.000669315
0.00071948
0.00076675
0.000811169
0.000852974
0.000892102
0.000929426
0.000964743
0.000998837
0.00103117
0.00106234
0.0010924
0.00112148
0.00114964
0.00117709
0.00120384
0.00123003
0.00125565
0.00128077
0.00130541
0.00132958
0.00135331
0.0013766
0.00139946
0.00142187
0.00144385
0.00146538
0.00148645
0.00150705
0.00152717
0.0015468
0.00156595
0.00158462
0.00160284
0.00162067
0.00163813
0.0016552
0.00167185
0.00168808
0.00170386
0.00171918
0.00173401
0.00174834
0.00176216
0.00177545
0.00178819
0.00180036
0.00181196
0.00182296
0.00183336
0.00184313
0.00185227
0.00186077
0.00186862
0.00187583
0.00188239
0.00188831
0.00189356
0.00189811
0.00190204
0.00190531
0.00190796
0.00190994
0.00191122
0.00191187
0.0019121
0.00191168
0.00191048
0.00190842
0.00190611
0.00190299
0.00189922
0.00189502
0.0018903
0.00188488
0.00187905
0.00187286
0.0018662
0.00185892
0.00185146
0.00184346
0.00183528
0.00182673
0.00181787
0.00180875
0.00179958
0.00179018
0.00178056
0.00177106
0.00176127
0.00175132
0.00174106
0.00173103
0.00172112
0.00171126
0.00170178
0.00169225
0.00168323
0.00167469
0.00166604
0.00165768
0.00164999
0.00164235
0.00163505
0.00162837
0.00162193
0.00161636
0.00161098
0.00160616
0.00160195
0.00159803
0.00159456
0.00159117
0.0015874
0.00158234
0.00156742
2.64635e-09
3.72451e-08
3.97357e-07
1.70864e-06
6.02321e-06
1.51749e-05
2.87605e-05
4.57143e-05
6.4297e-05
8.27642e-05
9.99392e-05
0.000114829
0.000126806
0.00013606
0.000142964
0.000147409
0.000150023
0.000151072
0.000150777
0.000149301
0.000146762
0.000143017
0.000138117
0.000132554
0.000125496
0.000117004
0.000107014
9.56399e-05
8.32307e-05
7.03933e-05
5.81147e-05
4.73259e-05
3.83384e-05
3.10504e-05
2.5518e-05
2.1796e-05
1.86466e-05
1.96008e-05
2.57092e-05
4.0788e-05
6.33006e-05
8.11462e-05
8.50899e-05
8.14097e-05
7.85558e-05
7.84264e-05
8.11919e-05
8.7764e-05
9.95892e-05
0.000118141
0.000133591
0.000161144
0.000197357
0.000239545
0.000293002
0.000347407
0.00041269
0.000478235
0.000548487
0.000618576
0.000688941
0.000757619
0.000824374
0.000888371
0.000949494
0.00100763
0.0010627
0.00111481
0.00116454
0.00121202
0.00125723
0.00130053
0.00134217
0.00138219
0.00142087
0.00145831
0.00149466
0.00153
0.00156446
0.00159811
0.001631
0.00166319
0.0016947
0.00172557
0.00175582
0.00178547
0.00181453
0.00184301
0.00187091
0.00189825
0.00192503
0.00195124
0.0019769
0.00200202
0.00202659
0.00205065
0.0020742
0.00209727
0.00211985
0.00214195
0.00216355
0.00218462
0.00220514
0.00222511
0.00224448
0.00226326
0.00228141
0.00229893
0.0023158
0.002332
0.00234752
0.00236234
0.00237644
0.00238981
0.00240243
0.0024143
0.0024254
0.00243572
0.00244526
0.00245401
0.00246197
0.0024691
0.00247542
0.00248094
0.00248564
0.00248954
0.00249261
0.00249486
0.00249619
0.00249689
0.00249713
0.00249629
0.00249461
0.00249217
0.00248894
0.00248499
0.00248035
0.00247502
0.00246896
0.00246232
0.00245508
0.00244725
0.00243877
0.00242985
0.0024204
0.00241053
0.00240019
0.00238945
0.00237835
0.00236696
0.00235529
0.00234333
0.00233126
0.00231893
0.00230637
0.00229357
0.0022808
0.00226806
0.00225544
0.00224295
0.00223052
0.00221853
0.00220689
0.00219526
0.00218409
0.00217328
0.00216277
0.00215265
0.00214309
0.00213395
0.00212556
0.00211764
0.00211041
0.00210385
0.0020978
0.00209231
0.00208705
0.00208163
0.00207482
0.00206008
2.21743e-09
8.62344e-08
8.93093e-07
4.36655e-06
1.51098e-05
3.31387e-05
5.56839e-05
8.0575e-05
0.000104578
0.000125287
0.000141935
0.000154714
0.000164628
0.000171476
0.000176126
0.000178945
0.00018023
0.000180192
0.000178995
0.00017676
0.000173564
0.00016934
0.000164148
0.000158301
0.000151184
0.000142852
0.000133169
0.000122145
0.000109926
9.59381e-05
8.08375e-05
6.65917e-05
5.40585e-05
4.3459e-05
3.45744e-05
3.06142e-05
3.18327e-05
4.19602e-05
6.3984e-05
8.61365e-05
9.92089e-05
0.000104713
0.000106089
0.000106549
0.000109156
0.00011639
0.000130398
0.000141537
0.000158815
0.000189809
0.000227393
0.000275425
0.000332805
0.000395028
0.00046552
0.000537167
0.000614625
0.000691505
0.00077006
0.000847406
0.000923582
0.0009976
0.00106925
0.00113817
0.00120396
0.00126712
0.00132793
0.00138584
0.00144137
0.00149467
0.00154585
0.00159512
0.00164267
0.00168861
0.00173311
0.0017763
0.00181829
0.00185917
0.00189903
0.00193794
0.00197595
0.0020131
0.00204943
0.00208497
0.00211974
0.00215375
0.00218704
0.00221962
0.0022515
0.0022827
0.00231324
0.00234314
0.00237241
0.00240106
0.00242911
0.00245658
0.0024835
0.00250985
0.00253564
0.00256085
0.00258547
0.00260949
0.00263287
0.00265562
0.0026777
0.0026991
0.0027198
0.0027398
0.00275908
0.00277763
0.00279544
0.00281248
0.00282876
0.00284425
0.00285895
0.00287283
0.0028859
0.00289813
0.00290952
0.00292005
0.00292972
0.00293852
0.00294642
0.00295345
0.00295959
0.00296482
0.00296916
0.00297257
0.00297505
0.00297665
0.00297782
0.00297788
0.00297696
0.00297517
0.00297249
0.00296898
0.00296466
0.00295952
0.00295359
0.00294692
0.00293952
0.0029314
0.00292256
0.00291312
0.00290305
0.00289241
0.00288121
0.00286948
0.00285726
0.0028446
0.00283152
0.00281807
0.00280431
0.00279022
0.00277582
0.00276115
0.00274634
0.00273146
0.00271658
0.00270174
0.00268696
0.00267242
0.00265812
0.00264394
0.00263008
0.00261654
0.00260331
0.00259046
0.00257809
0.00256622
0.00255499
0.0025444
0.00253453
0.00252541
0.00251696
0.00250923
0.0025019
0.00249471
0.00248665
0.00247286
4.43078e-09
2.14013e-07
2.29583e-06
1.1923e-05
3.29455e-05
6.16303e-05
9.28506e-05
0.000120356
0.000142519
0.000159783
0.000173231
0.00018325
0.000190344
0.000195259
0.000198413
0.000200115
0.000200579
0.000199927
0.000198262
0.000195667
0.000192133
0.000187601
0.000182223
0.000176039
0.000168638
0.000159355
0.000142794
0.000127145
0.000112431
9.79767e-05
8.34268e-05
6.93057e-05
5.74691e-05
4.93247e-05
4.63868e-05
5.31424e-05
7.15795e-05
9.40485e-05
0.000114747
0.000125994
0.000131809
0.000134446
0.000137519
0.000144918
0.000154505
0.00016264
0.000180017
0.000210402
0.000249257
0.000298102
0.000355952
0.000421051
0.000493421
0.000569326
0.000649404
0.000730297
0.000813289
0.000895567
0.00097758
0.00105803
0.00113675
0.00121315
0.00128688
0.00135852
0.00142771
0.00149424
0.00155837
0.00162005
0.00167948
0.00173679
0.0017921
0.00184556
0.0018973
0.00194743
0.00199609
0.00204337
0.00208937
0.00213417
0.00217785
0.00222046
0.00226204
0.00230265
0.0023423
0.00238103
0.00241886
0.00245581
0.0024919
0.00252716
0.00256161
0.00259529
0.00262821
0.00266042
0.00269193
0.00272276
0.00275294
0.00278246
0.00281133
0.00283956
0.00286715
0.00289412
0.00292045
0.00294612
0.00297113
0.00299546
0.00301911
0.00304209
0.00306436
0.0030859
0.00310671
0.00312679
0.00314611
0.00316468
0.00318248
0.00319949
0.00321572
0.00323114
0.00324575
0.00325952
0.00327245
0.00328452
0.00329572
0.00330603
0.00331545
0.00332397
0.00333157
0.00333825
0.00334398
0.00334878
0.00335267
0.00335579
0.00335798
0.00335926
0.00335952
0.00335883
0.0033572
0.00335465
0.00335119
0.00334684
0.0033416
0.00333552
0.00332861
0.00332088
0.00331233
0.00330312
0.00329319
0.00328256
0.00327124
0.00325927
0.00324669
0.00323352
0.0032198
0.00320556
0.00319086
0.0031757
0.00316012
0.00314417
0.00312793
0.00311148
0.00309489
0.00307822
0.00306151
0.00304487
0.00302835
0.00301191
0.00299566
0.00297962
0.00296382
0.00294832
0.0029332
0.00291852
0.00290441
0.00289095
0.00287822
0.00286628
0.0028551
0.00284482
0.00283527
0.00282624
0.00281696
0.00280384
4.03069e-08
5.91359e-07
5.88698e-06
2.65867e-05
5.97941e-05
9.64768e-05
0.000128954
0.000154964
0.000174505
0.000188938
0.000198774
0.000205233
0.000209366
0.000211827
0.000213054
0.000213327
0.000212816
0.000211604
0.000209591
0.000206614
0.000202608
0.000197525
0.000191562
0.000184402
0.00017358
0.000155999
0.000139792
0.000124696
0.000110671
9.74749e-05
8.50262e-05
7.49337e-05
7.06278e-05
7.55701e-05
8.3196e-05
0.000101377
0.000126411
0.000148534
0.000160499
0.00016539
0.000169417
0.000176074
0.000176676
0.000182067
0.000197704
0.000225909
0.000263178
0.000310231
0.000366358
0.00043182
0.000502361
0.000579067
0.000659806
0.000742483
0.000826869
0.000911535
0.000996408
0.00108036
0.00116323
0.00124436
0.00132316
0.00140028
0.00147539
0.00154812
0.00161855
0.00168666
0.00175255
0.00181625
0.00187787
0.00193752
0.00199528
0.00205126
0.00210557
0.00215831
0.00220955
0.00225939
0.0023079
0.00235514
0.00240118
0.00244607
0.00248986
0.00253257
0.00257424
0.00261489
0.00265453
0.00269317
0.00273084
0.00276758
0.0028034
0.00283837
0.0028725
0.00290586
0.00293847
0.00297037
0.00300158
0.00303211
0.00306195
0.00309115
0.00311971
0.00314764
0.00317493
0.00320157
0.00322755
0.00325285
0.00327747
0.0033014
0.00332462
0.00334713
0.00336892
0.00339
0.00341035
0.00342998
0.00344887
0.00346703
0.00348445
0.00350111
0.003517
0.0035321
0.0035464
0.00355988
0.00357253
0.00358433
0.00359527
0.00360533
0.00361451
0.00362276
0.00363012
0.00363659
0.00364219
0.00364691
0.00365062
0.00365347
0.00365532
0.00365618
0.00365606
0.00365495
0.00365288
0.00364984
0.00364585
0.00364092
0.00363507
0.00362829
0.00362057
0.00361205
0.00360268
0.0035925
0.00358151
0.00356975
0.00355723
0.003544
0.00353008
0.00351549
0.00350029
0.00348449
0.00346813
0.00345126
0.00343395
0.00341628
0.00339832
0.00338012
0.00336175
0.00334329
0.00332479
0.00330626
0.00328775
0.00326932
0.003251
0.00323285
0.00321492
0.00319731
0.00318015
0.00316357
0.00314768
0.00313257
0.00311823
0.00310504
0.00309294
0.00308145
0.0030711
0.0030579
1.56429e-07
1.45129e-06
1.38615e-05
4.68689e-05
8.88452e-05
0.000127213
0.000157652
0.000180391
0.000196494
0.000207328
0.000214328
0.000218559
0.000220762
0.000221549
0.00022135
0.000220418
0.000218847
0.000216601
0.000213548
0.000209705
0.000205012
0.000199385
0.000192729
0.000184203
0.000166172
0.00015005
0.000135549
0.000121958
0.000110243
0.000101883
9.88332e-05
9.67152e-05
9.82035e-05
0.000111603
0.000132684
0.000153912
0.000172831
0.000186587
0.000194713
0.000197253
0.000197145
0.000200848
0.000213406
0.000238195
0.000272547
0.000316628
0.000369704
0.000431937
0.000499208
0.000573471
0.000651951
0.000734187
0.000818295
0.000903224
0.000988649
0.00107383
0.00115842
0.00124188
0.00132345
0.00140342
0.00148205
0.00155852
0.00163296
0.00170527
0.0017755
0.00184365
0.00190979
0.00197395
0.00203621
0.00209663
0.00215531
0.00221231
0.00226773
0.00232162
0.00237407
0.00242513
0.0024748
0.0025232
0.00257035
0.00261632
0.00266113
0.00270483
0.00274743
0.00278896
0.00282943
0.0028689
0.0029073
0.00294464
0.00298096
0.00301631
0.00305074
0.00308431
0.0031171
0.00314915
0.0031805
0.00321118
0.00324125
0.0032707
0.00329953
0.00332774
0.00335534
0.00338231
0.00340864
0.00343432
0.00345934
0.0034837
0.00350739
0.0035304
0.00355274
0.0035744
0.00359539
0.00361571
0.00363537
0.00365436
0.00367269
0.00369034
0.0037073
0.00372355
0.00373907
0.00375386
0.00376788
0.00378112
0.00379357
0.00380521
0.00381602
0.00382598
0.00383505
0.00384331
0.00385073
0.00385729
0.00386288
0.00386757
0.00387131
0.00387407
0.00387581
0.00387653
0.00387625
0.00387494
0.00387262
0.0038693
0.00386498
0.00385965
0.00385333
0.00384605
0.00383782
0.00382865
0.00381855
0.00380755
0.00379567
0.00378292
0.00376935
0.00375496
0.0037398
0.00372388
0.00370726
0.00368997
0.00367207
0.00365365
0.00363475
0.00361546
0.00359584
0.00357594
0.00355582
0.00353552
0.00351508
0.00349455
0.00347396
0.00345337
0.00343283
0.00341242
0.0033923
0.00337262
0.00335357
0.00333525
0.0033176
0.00330116
0.00328603
0.00327141
0.00325959
0.0032448
3.4822e-07
3.18538e-06
2.6022e-05
7.09999e-05
0.000117668
0.000155854
0.000183457
0.000202031
0.000214683
0.000222178
0.000225802
0.000226803
0.000226178
0.000224582
0.000222396
0.000219786
0.00021673
0.000213152
0.000208819
0.000203794
0.000197854
0.000191072
0.000183321
0.000171956
0.000156818
0.000143837
0.000133979
0.000127756
0.000118563
0.000112784
0.000114804
0.000125535
0.000141609
0.000159323
0.000176984
0.000191964
0.000203196
0.000209659
0.00021253
0.000217403
0.000227587
0.000249025
0.000279444
0.000319729
0.000368955
0.000427015
0.000489833
0.000559202
0.000633264
0.000712081
0.000793709
0.000877263
0.00096162
0.00104615
0.00113047
0.00121413
0.00129649
0.0013772
0.0014571
0.00153513
0.00161139
0.00168571
0.0017581
0.00182857
0.00189715
0.00196389
0.00202884
0.00209204
0.00215354
0.00221332
0.00227152
0.00232821
0.00238344
0.00243726
0.00248975
0.00254101
0.00259119
0.00264007
0.00268766
0.00273399
0.00277912
0.00282308
0.00286589
0.00290757
0.00294809
0.00298738
0.00302549
0.00306249
0.0030984
0.00313329
0.00316722
0.0032003
0.00323261
0.00326423
0.00329522
0.00332561
0.00335544
0.00338469
0.00341337
0.00344148
0.00346901
0.00349596
0.00352232
0.00354807
0.00357322
0.00359774
0.00362164
0.00364491
0.00366756
0.00368958
0.003711
0.00373182
0.00375205
0.0037717
0.00379078
0.00380928
0.00382718
0.00384448
0.00386116
0.00387718
0.00389253
0.0039072
0.00392117
0.00393442
0.00394688
0.00395853
0.00396945
0.00397959
0.00398895
0.00399749
0.00400516
0.00401194
0.00401782
0.00402273
0.00402661
0.00402945
0.00403126
0.00403202
0.00403173
0.00403038
0.00402795
0.00402445
0.00401988
0.00401423
0.00400753
0.00399977
0.00399098
0.00398115
0.0039703
0.00395846
0.00394565
0.00393187
0.00391716
0.00390154
0.00388504
0.00386771
0.00384961
0.00383079
0.00381132
0.00379127
0.00377069
0.00374966
0.00372821
0.00370638
0.00368424
0.00366182
0.00363918
0.00361634
0.00359331
0.0035702
0.00354713
0.00352434
0.00350203
0.00348039
0.00345956
0.00343975
0.00342148
0.00340316
0.00339015
0.00337228
5.5311e-07
6.22067e-06
4.12902e-05
9.36123e-05
0.000141151
0.000177801
0.000203151
0.000219114
0.00022754
0.000230813
0.000230739
0.000228605
0.000225272
0.00022128
0.000216887
0.000212218
0.000206918
0.000201187
0.000194809
0.000187874
0.00018053
0.000172935
0.000164554
0.000155496
0.000146279
0.0001377
0.000131296
0.000129661
0.000133227
0.000141698
0.000153644
0.000167752
0.000182539
0.000196424
0.000208472
0.000217506
0.00022309
0.000229431
0.00023971
0.000258814
0.000285335
0.00032122
0.000365568
0.000418189
0.00047843
0.000542215
0.000610478
0.000683492
0.000760216
0.000839972
0.000921435
0.00100374
0.00108615
0.00116819
0.00124955
0.00132931
0.00140815
0.00148565
0.00156158
0.00163577
0.00170822
0.00177889
0.00184774
0.00191483
0.00198029
0.00204418
0.00210657
0.00216754
0.00222721
0.0022859
0.00234325
0.0023992
0.00245376
0.00250697
0.00255886
0.00260943
0.00265863
0.00270656
0.00275319
0.00279865
0.00284299
0.00288622
0.00292838
0.00296955
0.0030096
0.00304851
0.00308627
0.00312284
0.00315823
0.0031925
0.00322575
0.00325812
0.00328975
0.00332074
0.00335117
0.00338108
0.00341048
0.00343938
0.00346777
0.00349566
0.00352303
0.00354988
0.00357619
0.00360195
0.00362716
0.0036518
0.00367586
0.00369935
0.00372226
0.0037446
0.00376638
0.00378764
0.00380838
0.00382862
0.00384839
0.00386768
0.00388648
0.00390479
0.00392257
0.00393981
0.00395648
0.00397254
0.00398805
0.00400284
0.00401694
0.00403039
0.00404317
0.00405525
0.00406661
0.00407724
0.00408708
0.0040961
0.00410426
0.00411151
0.00411771
0.00412288
0.00412702
0.0041301
0.0041321
0.004133
0.00413277
0.00413141
0.00412888
0.0041252
0.00412036
0.00411436
0.00410721
0.0040989
0.00408945
0.00407887
0.00406717
0.00405436
0.00404047
0.0040255
0.00400949
0.00399247
0.00397449
0.00395561
0.00393588
0.00391538
0.00389414
0.00387224
0.00384972
0.00382663
0.00380303
0.00377898
0.00375453
0.00372968
0.00370439
0.00367872
0.0036528
0.00362691
0.00360132
0.00357629
0.00355209
0.00352878
0.00350729
0.00348438
0.003471
0.00344732
7.18255e-07
1.09892e-05
5.70565e-05
0.000115568
0.000164202
0.000198297
0.000219788
0.0002312
0.000235591
0.000235297
0.000232055
0.000227088
0.000221191
0.000214878
0.000208056
0.000201156
0.000194059
0.00018665
0.000179623
0.000173084