/*--------------------------------*- C++ -*----------------------------------*\
| =========                 |                                                 |
| \\      /  F ield         | OpenFOAM: The Open Source CFD Toolbox           |
|  \\    /   O peration     | Version:  4.x                                   |
|   \\  /    A nd           | Web:      www.OpenFOAM.org                      |
|    \\/     M anipulation  |                                                 |
\*---------------------------------------------------------------------------*/
FoamFile
{
    version     2.0;
    format      ascii;
    class       volScalarField;
    location    "300";
    object      omega;
}
// * * * * * * * * * * * * * * * * * * * * * * * * * * * * * * * * * * * * * //

dimensions      [0 0 -1 0 0 0 0];

internalField   nonuniform List<scalar> 
12225
(
38728.7
41499.8
43129.6
43944.2
44183.4
44130.4
43973.3
43696.3
43398.4
43111.1
42843.4
42595.5
42381
42176.6
42022.3
41850.6
41765.1
41611.5
2631.98
6716.99
9522.37
11508.1
12878.3
13791.3
14407.8
14814.3
15077.7
15314.8
15537.7
15783.6
15999.6
16223.6
16398.2
16569.7
16673.2
16717.8
522.495
1189.88
1760.92
2298.47
2741.53
3161.78
3468.33
3775.18
4006.21
4318.99
4550.24
4847.76
5051.4
5318.59
5483.29
5717.55
5836.66
6032.57
418.219
555.192
678.27
831.546
959.64
1102.68
1209.88
1335.12
1423.3
1542.49
1622.88
1734.18
1802.76
1903.98
1959.1
2049.36
2090.16
2172.13
426.779
457.688
480.315
527.942
568.749
621.097
661.505
712.187
748.253
795.425
827.25
870.93
898.061
938.019
960.194
996.45
1013.46
1047.12
435.201
440.039
443.437
453.027
464.308
482.35
496.877
517.224
532.481
552.728
566.943
586.035
598.41
616.072
626.352
642.74
650.79
666.331
438.222
437.303
436.495
436.837
438.71
441.718
445.239
451.74
456.848
464.517
470.077
477.857
483.045
490.526
495.042
502.215
505.935
512.928
438.8
437.086
435.295
434.08
433.132
433.028
433.199
434.081
435.281
437.738
439.585
442.526
444.489
447.563
449.426
452.528
454.193
457.443
438.931
437.002
435.004
433.303
431.68
430.474
429.383
428.688
428.138
427.965
428.017
428.339
428.684
429.374
429.81
430.64
431.152
432.196
438.971
436.91
434.876
433.005
431.198
429.61
428.099
426.788
425.575
424.563
423.611
422.888
422.129
421.628
421.012
420.723
420.207
420.122
438.989
436.847
434.79
432.855
430.994
429.28
427.635
426.125
424.672
423.363
422.088
420.96
419.838
418.865
417.871
417.036
416.152
415.446
438.995
436.811
434.733
432.765
430.881
429.117
427.429
425.847
424.326
422.908
421.542
420.27
419.04
417.899
416.791
415.766
414.764
413.848
438.998
436.791
434.697
432.709
430.814
429.024
427.318
425.703
424.162
422.702
421.308
419.987
418.724
417.527
416.381
415.296
414.253
413.271
438.998
436.779
434.675
432.676
430.773
428.969
427.252
425.622
424.069
422.592
421.185
419.846
418.568
417.352
416.19
415.084
414.026
413.02
439
436.774
434.663
432.657
430.749
428.937
427.213
425.575
424.014
422.529
421.114
419.766
418.48
417.255
416.085
414.97
413.904
412.888
439.001
436.771
434.656
432.646
430.735
428.918
427.19
425.547
423.982
422.492
421.072
419.719
418.428
417.198
416.023
414.903
413.832
412.812
439
436.769
434.651
432.638
430.725
428.907
427.176
425.53
423.962
422.469
421.046
419.69
418.396
417.163
415.985
414.862
413.789
412.765
439
436.769
434.65
432.637
430.724
428.905
427.174
425.526
423.958
422.463
421.039
419.682
418.388
417.153
415.974
414.85
413.776
412.75
439.001
436.771
434.654
432.641
430.729
428.91
427.18
425.532
423.964
422.47
421.046
419.688
418.394
417.159
415.981
414.856
413.782
412.756
439.001
436.771
434.655
432.644
430.732
428.914
427.184
425.538
423.97
422.477
421.054
419.698
418.404
417.171
415.994
414.871
413.798
412.775
439.001
436.773
434.661
432.652
430.743
428.926
427.201
425.558
423.994
422.505
421.087
419.735
418.447
417.219
416.049
414.932
413.867
412.851
439.002
436.776
434.675
432.669
430.768
428.957
427.244
425.61
424.063
422.588
421.193
419.863
418.607
417.406
416.276
415.193
414.176
413.2
439.021
436.776
434.702
432.708
430.836
429.056
427.403
425.83
424.378
423.003
421.745
420.555
419.475
418.446
417.528
416.639
415.865
415.089
439.126
436.682
434.754
432.879
431.216
429.717
428.456
427.3
426.383
425.592
425.071
424.646
424.426
424.281
424.288
424.404
424.585
424.697
439.399
435.987
435.219
434.358
434.298
434.665
435.521
436.727
438.525
440.511
443.182
445.644
448.662
451.302
454.473
457.115
460.339
462.857
438.298
433.959
440.338
446.532
455.398
463.885
474.278
484.296
495.911
506.52
518.311
528.602
539.92
549.449
560.066
568.661
578.547
586.146
425.291
451.054
482.881
524.398
566.618
606.064
647.845
685.383
724.577
758.203
793.573
822.738
854.13
878.984
906.708
927.672
952.257
969.891
393.137
624.181
807.691
994.407
1167.74
1323.16
1471.63
1598.11
1719.65
1818.86
1917.5
1993.85
2074.01
2132.09
2197.98
2242.27
2297.7
2332.62
770.442
2433.61
3580.32
4459.3
5187.91
5789.67
6281.85
6670.96
6989.76
7238.82
7447.14
7601.66
7742.81
7838.73
7943.28
8006.87
8100.41
8153.55
20945.3
22169.9
23092.5
23774.3
24249.3
24574.1
24775
24900.9
24974.7
25008.2
25003.6
24980.2
24941.3
24887.4
24818.9
24751.3
24685.8
24622.8
11463.3
2495.05
2497.89
2501.1
2504.52
2508.19
2512.88
2519.2
2527.5
2537.6
2548.39
2559.13
2569.29
2578.4
2586.65
2593.68
2599.69
2604.64
2608.74
2611.26
2613.62
2614.89
2615.55
2614.49
2611.81
2607.35
2601.09
2593.4
2585.14
2577.89
2573.51
2572.72
2574.56
2577.45
2580.49
2583.56
2586.65
2589.77
2592.9
2596.16
2599.71
2604.3
2610.95
2619.58
2627.91
2634.75
2638.6
2641.29
2643.14
2645.15
2647.99
2653.27
2663.91
2669.84
2678.86
2692.53
2726.54
2873.56
3099.56
3314.64
3508.37
3681.34
3837.67
3980.17
4112.25
4236.46
4348.84
4453.23
4549.38
4639.57
4723.96
4804.05
4880.02
4952.85
5022.71
5090.13
5155.25
5218.5
5279.8
5339.49
5397.72
5454.52
5509.95
5564.09
5616.91
5668.47
5718.73
5767.74
5815.42
5861.82
5906.87
5950.57
5992.91
6033.89
6073.53
6111.9
6149.14
6185.48
6221.25
6255.69
6289.13
6321.4
6352.55
6382.53
6411.32
6438.91
6465.26
6490.37
6514.22
6536.79
6558.09
6578.11
6596.87
6614.35
6630.64
6645.74
6659.83
6673.04
6685.77
6698.41
6710.71
6710.83
6718.86
6722.95
6730.82
6723.86
6729.27
6723.65
6723.45
6717.93
6715.59
6710.52
6705.4
6699.21
6692.39
6684.39
6675.89
6666.64
6656.69
6646.04
6634.66
6623.05
6611.24
6598.34
6585.49
6572.09
6558.44
6544.71
6530.8
6518.44
6506.11
6492.84
6480.88
6467.95
6455.54
6443.22
6433.01
6422.76
6413.81
6406.67
6400.44
6393.38
6389.84
6386.94
6385.99
6386.14
6387.71
6392.55
6393.74
6401.44
6403.16
6411.48
6421.75
6428.25
6439.58
6448.08
6457.7
6466.14
6476.66
6476.72
11463.5
1997.73
1046.53
881.956
762.643
639.162
646.322
658.308
651.332
632.285
605.731
580.439
558.532
537.554
519.594
506.179
497.157
492.541
496.374
497.84
531.884
579.111
655.436
747.614
849.563
956.082
1058.61
1152.85
1224.66
1277.25
1277.19
1252.66
1185.43
1063.37
914.785
769.429
656.487
565.921
523.177
486.402
452.91
438.137
441.18
448.422
464.562
482.495
508.674
528.51
570.056
645.121
739.469
937.774
1355.93
1779.22
2113.59
2295.73
2415.72
2489.02
2519.46
2521.11
2462.52
2390.71
2312.53
2239.51
2173.08
2115.4
2066.28
2026.05
1993.67
1968.5
1949.34
1935.36
1925.59
1920.3
1914.74
1913.37
1912.14
1911.95
1912.79
1916.32
1919.08
1922.92
1926.65
1930.69
1934.71
1938.77
1942.77
1946.7
1950.52
1954.23
1957.83
1961.35
1964.84
1968.4
1972.15
1976.32
1981.21
1987.17
1994.75
2002.21
2009.49
2016.5
2023.3
2029.85
2036.16
2042.23
2048.06
2053.65
2059
2064.12
2069
2073.66
2078.09
2082.3
2086.31
2090.13
2093.78
2097.26
2100.58
2103.65
2106.26
2108.06
2110.44
2112.11
2113.82
2114.55
2115.6
2115.14
2115.03
2114.09
2113.48
2112.59
2111.57
2110.41
2109.11
2107.63
2106
2104.15
2102.24
2100.17
2097.93
2095.65
2093.37
2090.91
2088.5
2085.92
2083.35
2080.8
2078.33
2075.99
2073.8
2071.94
2068.25
2065.89
2063.93
2062.8
2059.89
2058.21
2056.79
2055.7
2055.71
2053.78
2052.22
2053.2
2053.16
2053.42
2054.28
2055.9
2056.59
2059.47
2060.34
2063.6
2067.14
2070.03
2074.52
2078.75
2083.91
2089.35
2094.11
2111.87
11463.6
2048.88
826.083
623.774
655.292
712.22
696.306
651.303
588.328
526.735
471.689
429.152
394.256
362.586
336.499
316.527
301.336
289.91
282.258
276.236
277.048
279.768
290.32
307.443
334.951
373.004
420.808
478.325
540.38
603.493
656.938
695.961
716.597
709.477
683.846
633.621
567.138
499.786
429.948
377.608
344.458
349.177
358.768
380.36
400.51
430.521
507.611
631.554
803.24
1086.19
1352.37
1533.96
1670.15
1777.72
1827.55
1827.25
1787.54
1727.76
1651.73
1573.76
1497.15
1433.81
1379.03
1335.68
1300.68
1273.64
1252.79
1237.14
1225.57
1217.26
1211.46
1208.03
1205.47
1204.68
1204.04
1204.04
1204.63
1206.19
1207.97
1210.23
1212.47
1214.96
1217.47
1220.06
1222.68
1225.32
1227.97
1230.63
1233.3
1235.98
1238.69
1241.45
1244.29
1247.23
1250.31
1253.58
1257.04
1260.71
1264.46
1268.05
1271.55
1274.92
1278.18
1281.31
1284.33
1287.23
1290
1292.66
1295.2
1297.62
1299.92
1302.11
1304.18
1306.14
1307.99
1309.74
1311.37
1312.89
1314.29
1315.54
1316.61
1317.52
1318.42
1319.1
1319.68
1320.03
1320.28
1320.21
1320.05
1319.64
1319.45
1318.87
1318.44
1317.91
1317.35
1316.77
1316.03
1314.96
1314.29
1313.48
1312.3
1311.06
1310.26
1309.01
1308.16
1306.92
1305.72
1304.5
1303.29
1302.32
1300.96
1299.91
1298.38
1297.28
1296.41
1295.84
1295.27
1294.53
1293.87
1293.3
1292.99
1292.26
1291.31
1291.57
1291.66
1291.82
1292.32
1293.1
1293.69
1294.93
1295.66
1297.19
1298.89
1300.59
1302.92
1305.44
1308.47
1311.84
1315.45
1327.39
11463.6
2021.94
942.353
945.036
933.286
842.745
721.495
607.258
513.873
443.315
389.911
347.385
313.735
287.729
267.63
252.021
239.896
230.555
223.558
218.508
215.276
214.763
216.118
218.935
225.882
237.36
254.242
277.484
307.566
342.303
378.743
413.128
442.373
462.976
468.05
461.566
442.822
413.746
372.23
364.589
390.573
469.269
540.78
600.537
664.002
761.62
918.265
1116.44
1287.98
1379.31
1445.24
1494.23
1515.15
1480.72
1393.72
1353.41
1280.95
1222.57
1163.42
1114.94
1072.71
1039.7
1012.91
992.585
977.004
965.523
957.177
951.323
947.362
945.191
943.826
943.501
943.487
944.33
945.535
947.089
948.942
951.081
953.344
955.758
958.225
960.776
963.362
965.988
968.637
971.306
973.992
976.694
979.413
982.151
984.913
987.702
990.524
993.381
996.274
999.196
1002.13
1005.06
1007.93
1010.71
1013.41
1016.02
1018.54
1020.97
1023.32
1025.57
1027.73
1029.8
1031.78
1033.67
1035.46
1037.15
1038.75
1040.26
1041.68
1043
1044.22
1045.35
1046.37
1047.28
1048.07
1048.77
1049.38
1049.87
1050.26
1050.52
1050.67
1050.69
1050.63
1050.48
1050.2
1049.91
1049.64
1049.11
1048.64
1048.15
1047.53
1046.84
1046.22
1045.51
1044.7
1043.87
1043.12
1042.22
1041.4
1040.48
1039.57
1038.68
1037.79
1036.81
1035.88
1034.99
1033.97
1033.08
1032.28
1031.66
1030.95
1030.27
1029.67
1028.99
1028.52
1027.99
1027.4
1027.12
1026.96
1026.7
1026.72
1026.88
1027.05
1027.45
1027.76
1028.38
1029.14
1030.02
1031.22
1032.65
1034.41
1036.5
1039.02
1046.3
11463.7
2165.64
1398.78
1246.15
1018.8
803.053
627.223
503.52
417.574
356.719
312.283
279.543
255.459
237.371
223.484
212.655
204.159
197.528
192.462
188.766
186.302
185.251
185.548
186.557
189.468
194.446
202.068
213.017
228.089
247.786
271.119
295.288
318.214
338.038
352.344
357.914
355.92
358.875
393.479
471.463
581.305
664.456
743.801
840.387
957.654
1074.79
1167.48
1233.08
1283.07
1310.49
1315.65
1260.45
1192.21
1140.31
1075.96
1035.64
984.899
948.351
913.642
886.664
864.356
847.352
834.316
824.853
818.142
813.633
810.935
809.682
809.298
809.619
810.644
812.139
813.968
816.141
818.54
821.126
823.86
826.713
829.638
832.627
835.653
838.713
841.793
844.891
847.998
851.114
854.234
857.357
860.482
863.606
866.728
869.845
872.954
876.049
879.122
882.163
885.157
888.091
890.954
893.737
896.442
899.067
901.608
904.065
906.437
908.721
910.916
913.019
915.027
916.941
918.759
920.48
922.103
923.627
925.051
926.375
927.597
928.715
929.728
930.633
931.431
932.127
932.723
933.212
933.593
933.868
934.038
934.111
934.105
933.991
933.723
933.442
933.088
932.658
932.176
931.628
931.015
930.343
929.648
928.891
928.079
927.236
926.39
925.479
924.555
923.587
922.61
921.625
920.622
919.604
918.583
917.57
916.518
915.506
914.537
913.642
912.735
911.851
910.969
910.122
909.36
908.562
907.78
907.167
906.566
906.034
905.61
905.271
904.982
904.814
904.668
904.679
904.789
905.031
905.483
906.126
907.014
908.163
909.668
913.833
11463.6
2761.74
1793.88
1313.4
935.427
667.832
509.159
405.253
337.362
292.695
262.159
240.162
223.472
210.319
199.748
191.167
184.225
178.714
174.488
171.435
169.473
168.643
168.86
169.775
172.02
175.609
180.858
188.163
198.039
211.025
227.268
245.509
263.635
281.071
299.558
322.686
367.555
446.12
566.156
669.569
755.506
840.14
927.177
1006.34
1067.95
1114.13
1151.67
1169.08
1161.76
1104.51
1057.22
1005.97
955.434
916.656
876.31
846.184
816.099
793.403
773.622
758.461
746.673
738.11
732.12
728.312
726.429
725.801
726.016
727.221
729.023
731.288
733.945
736.883
740.041
743.378
746.846
750.417
754.064
757.766
761.503
765.265
769.041
772.824
776.609
780.392
784.17
787.94
791.699
795.443
799.17
802.874
806.552
810.198
813.805
817.368
820.878
824.327
827.705
831.006
834.229
837.369
840.424
843.391
846.267
849.051
851.74
854.334
856.826
859.214
861.496
863.669
865.73
867.679
869.513
871.231
872.831
874.314
875.677
876.921
878.043
879.044
879.924
880.686
881.329
881.853
882.258
882.548
882.726
882.802
882.779
882.63
882.309
881.954
881.52
881.002
880.41
879.743
879.007
878.207
877.356
876.444
875.478
874.47
873.434
872.343
871.216
870.052
868.863
867.652
866.423
865.178
863.921
862.659
861.382
860.116
858.869
857.653
856.441
855.241
854.051
852.885
851.758
850.638
849.543
848.524
847.543
846.618
845.763
844.973
844.24
843.581
842.977
842.461
842.037
841.718
841.55
841.525
841.705
842.075
842.637
844.684
11463.9
3445.2
1905.46
1181.94
757.933
531.504
404.344
333.751
290.455
260.992
239.287
222.444
208.841
197.578
188.146
180.263
173.767
168.582
164.621
161.799
160.087
159.485
159.817
160.993
163.335
166.813
171.708
178.414
187.384
199.149
214.262
233.174
256.595
286.574
329.441
399.484
509.92
625.883
717.281
797.568
872.413
935.869
983.264
1020.51
1047.97
1056.55
1042.52
996.883
954.452
911.793
872.054
837.397
804.147
776.37
750.884
730.453
712.444
698.477
687.261
679.003
673.165
669.547
667.866
667.436
668.153
669.871
672.295
675.324
678.784
682.572
686.615
690.846
695.221
699.704
704.265
708.881
713.535
718.21
722.892
727.574
732.246
736.905
741.546
746.167
750.765
755.339
759.885
764.398
768.874
773.308
777.692
782.02
786.285
790.48
794.601
798.644
802.609
806.491
810.28
813.972
817.564
821.053
824.433
827.701
830.85
833.873
836.773
839.546
842.189
844.7
847.076
849.315
851.415
853.374
855.192
856.868
858.401
859.791
861.039
862.144
863.107
863.929
864.612
865.157
865.565
865.843
865.993
866.019
865.923
865.649
865.271
864.8
864.23
863.563
862.808
861.965
861.043
860.047
858.984
857.855
856.664
855.421
854.132
852.77
851.359
849.906
848.42
846.904
845.363
843.802
842.223
840.633
839.031
837.43
835.835
834.253
832.675
831.105
829.545
828.002
826.482
824.98
823.502
822.072
820.682
819.341
818.057
816.831
815.663
814.556
813.506
812.524
811.615
810.794
810.097
809.497
809.023
808.668
808.401
808.947
11469
3712.97
1766.04
951.309
594.39
429.173
345.059
296.148
264.614
242.319
225.548
212.088
200.775
191.033
182.597
175.355
169.256
164.273
160.475
157.935
156.633
156.539
157.437
159.532
162.82
167.287
173.212
181.251
192.283
206.905
227.451
257.176
300.231
365.615
463.543
567.295
653.815
729.709
798.479
857.904
903.31
938.547
962.48
968.988
952.419
914.553
878.431
843.177
810.388
778.176
751.877
726.842
704.252
685.163
668.737
655.417
644.552
636.318
630.298
626.403
624.531
624.03
624.771
626.669
629.472
633.015
637.129
641.695
646.604
651.77
657.13
662.632
668.236
673.913
679.638
685.392
691.161
696.929
702.682
708.413
714.112
719.776
725.402
730.986
736.529
742.031
747.49
752.897
758.249
763.537
768.755
773.892
778.94
783.893
788.747
793.498
798.151
802.693
807.116
811.417
815.591
819.635
823.545
827.316
830.945
834.43
837.766
840.95
843.977
846.845
849.549
852.088
854.46
856.662
858.694
860.554
862.243
863.762
865.11
866.289
867.301
868.146
868.826
869.343
869.702
869.909
869.96
869.859
869.605
869.2
868.659
867.996
867.215
866.323
865.325
864.229
863.04
861.767
860.416
858.99
857.495
855.94
854.337
852.664
850.938
849.164
847.35
845.5
843.62
841.713
839.784
837.838
835.879
833.914
831.948
829.986
828.025
826.069
824.121
822.185
820.265
818.365
816.489
814.65
812.85
811.097
809.396
807.752
806.169
804.649
803.189
801.792
800.461
799.207
798.067
796.962
795.912
794.991
793.886
793.324
11485.6
3687.74
1477.05
760.53
496.197
380.536
319.562
282.026
256.727
237.918
222.792
210.133
199.297
189.914
181.809
174.923
169.268
164.887
161.841
160.046
159.465
160.084
161.918
165.159
170.169
177.26
186.976
201.108
221.163
248.747
289.751
351.846
432.169
517.685
592.706
660.78
721.807
776.408
821.865
858.818
885.744
893.821
880.704
849.048
817.276
786.95
759.045
731.785
710.059
688.548
669.323
651.568
636.187
623.354
612.748
604.389
598.072
593.71
591.35
590.55
590.965
592.712
595.536
599.284
603.79
608.915
614.531
620.536
626.841
633.377
640.08
646.904
653.809
660.767
667.752
674.747
681.75
688.731
695.679
702.582
709.432
716.222
722.949
729.61
736.203
742.717
749.168
755.558
761.882
768.13
774.292
780.355
786.307
792.139
797.842
803.41
808.835
814.115
819.247
824.226
829.05
833.712
838.21
842.539
846.696
850.676
854.476
858.092
861.52
864.755
867.795
870.636
873.276
875.711
877.942
879.968
881.788
883.404
884.818
886.031
887.046
887.865
888.489
888.922
889.168
889.233
889.125
888.834
888.369
887.737
886.949
886.014
884.942
883.742
882.422
880.989
879.452
877.818
876.097
874.293
872.412
870.462
868.448
866.371
864.237
862.052
859.822
857.552
855.247
852.913
850.554
848.174
845.78
843.376
840.968
838.56
836.152
833.746
831.346
828.955
826.579
824.221
821.886
819.584
817.32
815.102
812.936
810.829
808.79
806.823
804.926
803.093
801.324
799.625
798.05
796.497
794.964
793.604
791.76
790.499
11512.8
3305.76
1193.08
631.79
438.995
351.819
304.767
275.476
253.928
237.377
224.105
212.929
203.216
194.725
187.416
181.341
176.608
173.29
171.54
171.239
172.533
175.353
179.888
186.919
197.398
211.823
231.801
261.072
301.43
354.803
417.783
481.502
543.339
601.103
653.824
702.122
744.062
780.56
810.462
822.295
818.009
792.847
765.995
739.371
715.006
691.611
673.667
656.325
640.541
625.185
611.3
598.974
588.566
580.108
573.5
568.694
565.715
564.472
564.406
565.76
568.318
571.974
576.579
581.995
588.089
594.74
601.841
609.301
617.045
625.026
633.164
641.41
649.727
658.08
666.436
674.759
683.001
691.213
699.391
707.518
715.581
723.572
731.483
739.312
747.069
754.767
762.393
769.934
777.385
784.736
791.972
799.075
806.028
812.818
819.435
825.872
832.125
838.194
844.077
849.771
855.272
860.575
865.676
870.57
875.255
879.726
883.981
888.016
891.826
895.408
898.757
901.87
904.742
907.373
909.759
911.902
913.801
915.458
916.876
918.058
919.008
919.729
920.221
920.487
920.546
920.403
920.041
919.475
918.712
917.76
916.629
915.329
913.873
912.271
910.533
908.669
906.689
904.602
902.418
900.143
897.787
895.356
892.856
890.291
887.668
884.992
882.268
879.503
876.701
873.868
871.009
868.129
865.233
862.327
859.415
856.502
853.588
850.676
847.77
844.873
841.991
839.128
836.29
833.484
830.717
827.997
825.33
822.729
820.212
817.785
815.449
813.189
810.999
808.875
806.824
804.832
802.821
801.125
798.459
796.823
11542
2822.07
990.786
565.813
415.417
343.133
302.264
276.097
258.011
244.178
232.771
222.966
214.464
207.233
201.394
197.063
194.683
194.136
195.693
199.253
204.83
212.629
223.43
238.575
259.282
286.969
322.503
364.253
410.539
458.924
506.897
552.834
596.402
636.938
673.084
705.513
735.589
753.428
756.415
740.506
720.755
698.672
678.225
658.949
640.581
626.81
614.477
602.333
590.734
579.751
569.962
561.609
554.86
549.743
546.208
544.457
544.03
544.939
547.135
550.541
555.031
560.502
566.858
573.978
581.722
589.984
598.67
607.686
616.933
626.28
635.777
645.401
655.114
664.88
674.662
684.442
694.218
703.952
713.639
723.238
732.734
742.117
751.379
760.5
769.507
778.407
787.199
795.887
804.471
812.94
821.275
829.448
837.432
845.206
852.759
860.084
867.178
874.041
880.671
887.067
893.225
899.14
904.809
910.228
915.394
920.305
924.959
929.353
933.484
937.348
940.94
944.255
947.289
950.04
952.505
954.683
956.576
958.187
959.518
960.576
961.366
961.893
962.148
962.167
961.944
961.47
960.756
959.811
958.645
957.266
955.684
953.913
951.964
949.851
947.587
945.183
942.651
940.003
937.25
934.401
931.466
928.453
925.37
922.223
919.018
915.759
912.452
909.105
905.723
902.31
898.872
895.413
891.94
888.457
884.97
881.484
877.999
874.518
871.045
867.584
864.142
860.722
857.33
853.973
850.658
847.39
844.178
841.04
838.008
835.096
832.314
829.634
827.036
824.508
822.033
819.633
817.152
815.314
811.614
810.221
11565.6
2340.38
865.384
524.659
399.792
339.829
305.768
284.237
268.999
257.255
247.683
239.736
233.305
228.462
225.77
225.104
226.832
231.227
237.891
246.221
256.913
271.288
290.163
313.75
341.813
373.654
408.122
443.896
480.032
515.692
550.195
582.823
612.755
640.547
666.997
686.895
693.503
688.592
675.269
659.39
643.161
627.102
611.595
600.209
589.73
580.609
571.82
563.153
554.921
547.438
541.073
536.021
532.361
530.305
529.628
530.244
532.297
535.628
540.112
545.661
552.172
559.524
567.535
576.138
585.355
595.115
605.33
615.915
626.804
637.979
649.332
660.797
672.32
683.88
695.404
706.863
718.24
729.505
740.629
751.619
762.47
773.181
783.762
794.085
804.271
814.337
824.274
834.092
843.799
853.394
862.844
872.1
881.115
889.86
898.319
906.488
914.364
921.95
929.249
936.259
942.979
949.406
955.536
961.368
966.9
972.131
977.062
981.693
986.021
990.043
993.756
997.152
1000.23
1002.98
1005.4
1007.49
1009.25
1010.68
1011.8
1012.61
1013.11
1013.31
1013.23
1012.86
1012.21
1011.29
1010.1
1008.66
1006.96
1005.03
1002.88
1000.51
997.949
995.204
992.292
989.225
986.017
982.685
979.242
975.699
972.066
968.356
964.578
960.739
956.843
952.896
948.905
944.877
940.817
936.731
932.622
928.497
924.359
920.216
916.073
911.938
907.81
903.69
899.584
895.498
891.436
887.405
883.406
879.446
875.528
871.657
867.841
864.107
860.512
857.076
853.839
850.744
847.757
844.844
841.966
839.177
836.2
834.545
829.296
828.766
11580.3
2101.65
825.169
515.835
400.038
346.224
316.713
298.066
285.075
275.488
268.239
262.897
259.658
258.543
259.49
263.102
269.253
277.688
288.038
300.747
316.454
335.157
356.607
380.348
405.807
432.366
459.404
486.43
512.981
538.442
562.317
585.28
607.707
626.867
635.023
635.935
628.966
620.112
608.862
597.163
585.264
575.177
567.165
560.42
554.055
548.059
542.239
536.702
531.747
527.702
524.919
523.457
523.093
523.943
526.043
529.278
533.481
538.735
545.129
552.596
561.044
570.378
580.54
591.436
602.94
614.965
627.418
640.203
653.252
666.538
679.963
693.416
706.794
720.01
733.065
745.956
758.681
771.236
783.624
795.845
807.886
819.742
831.407
842.855
854.114
865.198
876.122
886.913
897.613
908.244
918.744
929.016
938.967
948.558
957.776
966.621
975.1
983.22
990.987
998.406
1005.48
1012.2
1018.58
1024.61
1030.29
1035.62
1040.61
1045.26
1049.57
1053.55
1057.18
1060.47
1063.39
1065.95
1068.14
1069.96
1071.41
1072.49
1073.21
1073.6
1073.64
1073.37
1072.77
1071.86
1070.64
1069.12
1067.31
1065.21
1062.85
1060.24
1057.37
1054.28
1050.96
1047.45
1043.76
1039.89
1035.87
1031.71
1027.44
1023.07
1018.6
1014.07
1009.46
1004.81
1000.1
995.347
990.556
985.735
980.891
976.026
971.146
966.255
961.359
956.463
951.578
946.715
941.869
937.039
932.232
927.458
922.721
918.025
913.362
908.739
904.155
899.614
895.125
890.718
886.497
882.476
878.781
875.285
871.936
868.67
865.406
862.219
858.538
856.235
849.478
848.445
11590.3
1931.63
781.527
506.822
405.725
358.557
332.755
316.237
304.984
297.509
292.862
290.769
290.465
292.515
296.89
303.489
312.095
322.581
334.983
349.352
365.496
383.23
402.16
421.916
442.134
462.401
482.415
501.939
520.673
538.984
557.474
574.465
582.842
585.522
583.796
580.379
574.518
567.722
559.831
553.287
548.24
544.1
540.843
538.133
535.575
533.206
531.076
529.322
528.102
527.515
527.327
528.168
530.221
533.544
538.158
544.065
551.364
560.106
570.031
580.966
592.791
605.403
618.717
632.618
646.985
661.747
676.811
692.014
707.245
722.403
737.476
752.46
767.189
781.592
795.671
809.454
822.959
836.227
849.324
862.263
874.996
887.528
899.86
911.977
923.873
935.552
947.036
958.383
969.714
981.151
992.521
1003.62
1014.23
1024.34
1033.96
1043.11
1051.81
1060.08
1067.93
1075.37
1082.41
1089.06
1095.31
1101.16
1106.62
1111.69
1116.39
1120.72
1124.69
1128.29
1131.54
1134.42
1136.91
1139.01
1140.71
1142
1142.88
1143.37
1143.44
1143.19
1142.58
1141.6
1140.27
1138.62
1136.64
1134.35
1131.75
1128.85
1125.66
1122.2
1118.48
1114.51
1110.3
1105.88
1101.27
1096.45
1091.45
1086.32
1081.06
1075.7
1070.26
1064.75
1059.18
1053.57
1047.92
1042.23
1036.52
1030.79
1025.04
1019.29
1013.53
1007.77
1002.02
996.272
990.556
984.891
979.26
973.656
968.091
962.574
957.109
951.698
946.311
940.955
935.629
930.337
925.09
919.922
915.002
910.309
905.825
901.493
897.354
893.336
889.342
885.504
881.101
878.093
870.637
868.739
11594.8
1918.31
780.25
514.14
419.167
376.433
354.152
338.368
327.168
321.417
319.009
318.616
320.678
324.918
331.008
338.75
347.991
358.623
370.531
383.591
397.612
412.299
427.393
442.682
457.989
473.182
488.211
503.077
517.638
530.489
538.534
543.371
545.24
546.034
545.942
544.86
542.609
541.868
541.378
541.23
541.352
541.667
541.801
541.709
541.821
542.33
543.314
544.906
547.257
550.531
554.992
560.645
567.596
575.833
585.34
596.135
608.329
622.003
636.806
652.371
668.533
685.173
702.181
719.443
736.837
754.219
771.475
788.548
805.338
821.749
837.708
853.116
867.867
882
895.624
908.868
921.732
934.309
946.872
959.451
971.8
984.002
996.084
1007.99
1019.67
1031.1
1042.3
1053.37
1064.59
1076.5
1088.45
1100.04
1110.7
1120.67
1130.03
1138.85
1147.14
1154.93
1162.26
1169.13
1175.57
1181.57
1187.14
1192.28
1197
1201.31
1205.21
1208.74
1211.9
1214.7
1217.15
1219.22
1220.9
1222.15
1223.01
1223.43
1223.4
1223.01
1222.19
1220.99
1219.4
1217.46
1215.18
1212.56
1209.61
1206.34
1202.75
1198.86
1194.68
1190.22
1185.48
1180.48
1175.23
1169.76
1164.09
1158.15
1151.99
1145.69
1139.28
1132.78
1126.2
1119.57
1112.9
1106.2
1099.47
1092.72
1085.96
1079.2
1072.44
1065.69
1058.95
1052.23
1045.52
1038.83
1032.2
1025.69
1019.22
1012.8
1006.44
1000.13
993.899
987.73
981.541
975.361
969.195
963.058
956.965
950.944
945.112
939.468
933.976
928.624
923.55
918.631
913.795
909.15
903.913
900.272
892.081
889.149
11596.3
1876.68
774.491
523.07
435.45
397.147
374.406
357.88
349.164
344.856
343.377
343.684
346.714
351.605
357.975
365.563
374.207
383.817
394.262
405.404
417.1
429.246
441.803
454.804
468.229
481.838
495.213
506.766
516.74
524.5
530.621
535.509
538.636
542.45
546.203
548.617
550.859
553.838
557.126
560.799
564.779
569.082
573.774
578.975
584.688
591.038
598.119
606.016
614.828
624.681
635.737
648.036
661.784
676.652
692.444
709.047
726.317
743.901
761.741
779.914
798.351
816.962
835.654
854.328
872.887
891.227
909.25
926.87
943.994
960.5
976.186
990.819
1004.58
1017.66
1030.3
1042.78
1055.16
1067.25
1080.33
1092.02
1102.66
1113.31
1124.08
1134.73
1145.15
1155.29
1165.15
1174.78
1184.31
1193.96
1203.65
1213.28
1222.56
1231.3
1239.45
1247.01
1254.03
1260.53
1266.55
1272.12
1277.24
1281.92
1286.17
1289.99
1293.38
1296.37
1298.96
1301.19
1303.08
1304.65
1305.9
1306.81
1307.33
1307.4
1307.15
1306.44
1305.28
1303.71
1301.73
1299.36
1296.63
1293.55
1290.16
1286.44
1282.4
1278.05
1273.38
1268.42
1263.17
1257.63
1251.82
1245.73
1239.39
1232.82
1226.05
1219.08
1211.93
1204.65
1197.27
1189.79
1182.25
1174.65
1167.03
1159.39
1151.74
1144.08
1136.42
1128.78
1121.15
1113.54
1105.95
1098.39
1090.86
1083.36
1075.92
1068.54
1061.22
1053.96
1046.75
1039.62
1032.56
1025.58
1018.45
1011.29
1004.17
997.094
990.068
983.117
976.305
969.635
963.083
956.661
950.454
944.457
938.637
932.995
926.759
922.327
913.176
909.098
11595
1859.94
779.121
536.083
449.641
411.265
391.735
379.504
371.836
368.009
366.686
366.692
369.342
373.846
380.286
387.788
396.301
405.827
416.387
428.046
440.599
453.643
466.836
479.949
492.748
505.126
516.586
526.603
537.59
548.218
558.246
567.941
577.265
587.071
597.083
607.277
617.682
628.343
639.22
650.275
661.615
673.316
685.506
698.271
711.61
725.596
740.29
755.629
771.599
788.218
805.529
823.609
842.126
860.938
879.968
899.114
918.254
937.216
955.904
974.288
992.338
1010.02
1027.29
1044.13
1060.5
1076.36
1091.7
1106.5
1120.72
1134.35
1147.37
1159.75
1171.39
1182.5
1193.43
1205
1217.3
1228.17
1238.44
1247.54
1255.89
1264.23
1272.56
1280.68
1288.51
1296.02
1303.21
1310.11
1316.79
1323.38
1330.07
1337.08
1344.05
1350.47
1356.28
1361.51
1366.23
1370.48
1374.31
1377.72
1380.75
1383.39
1385.64
1387.5
1388.98
1390.11
1390.9
1391.38
1391.62
1391.62
1391.41
1390.9
1390.06
1388.82
1387.19
1385.13
1382.66
1379.79
1376.54
1372.93
1368.99
1364.76
1360.24
1355.44
1350.34
1344.95
1339.27
1333.3
1327.06
1320.55
1313.76
1306.69
1299.36
1291.8
1284.03
1276.08
1267.98
1259.74
1251.41
1242.99
1234.5
1225.98
1217.43
1208.87
1200.31
1191.75
1183.21
1174.69
1166.2
1157.74
1149.31
1140.92
1132.56
1124.26
1116
1107.8
1099.67
1091.58
1083.57
1075.63
1067.77
1059.99
1052.21
1044.45
1036.74
1029.07
1021.46
1013.9
1006.42
999.034
991.714
984.469
977.324
970.314
963.401
956.531
949.141
943.384
933.344
927.564
11591.3
1845.29
787.187
550.005
468.039
433.926
416.792
407.4
400.917
396.549
394.538
394.14
395.935
401.935
410.843
421.13
432.96
445.703
459.818
475.287
491.885
509.367
527.688
546.678
566.254
586.394
607.015
628.408
651.278
674.721
698.405
722.258
746.404
770.817
795.34
819.785
843.88
867.489
890.634
913.313
935.6
957.569
979.318
1000.92
1022.45
1044.15
1066.39
1088.35
1109.8
1130.63
1150.73
1169.79
1187.67
1204.6
1220.67
1235.87
1250.16
1263.54
1276.07
1287.75
1298.64
1308.78
1318.22
1327
1335.16
1342.73
1349.76
1356.28
1362.34
1367.98
1373.34
1378.69
1384.02
1389.34
1394.63
1400.03
1405.59
1410.7
1415.58
1420.34
1425.29
1429.96
1434.13
1437.87
1441.24
1444.3
1447.13
1449.75
1452.21
1454.62
1457.4
1461.5
1465.7
1468.75
1471.11
1472.98
1474.46
1475.61