/*--------------------------------*- C++ -*----------------------------------*\
| =========                 |                                                 |
| \\      /  F ield         | OpenFOAM: The Open Source CFD Toolbox           |
|  \\    /   O peration     | Version:  4.x                                   |
|   \\  /    A nd           | Web:      www.OpenFOAM.org                      |
|    \\/     M anipulation  |                                                 |
\*---------------------------------------------------------------------------*/
FoamFile
{
    version     2.0;
    format      ascii;
    class       volScalarField;
    location    "300";
    object      p;
}
// * * * * * * * * * * * * * * * * * * * * * * * * * * * * * * * * * * * * * //

dimensions      [0 2 -2 0 0 0 0];

internalField   nonuniform List<scalar> 
12225
(
-5.67933
-6.55616
-6.9426
-7.05745
-7.17608
-7.32079
-7.45156
-7.55917
-7.65137
-7.73602
-7.81822
-7.89866
-7.97792
-8.05787
-8.14108
-8.23191
-8.33335
-8.4564
-5.95926
-6.60981
-6.93421
-7.04459
-7.15991
-7.30037
-7.42901
-7.53646
-7.63032
-7.71764
-7.80133
-7.88227
-7.96143
-8.04066
-8.12213
-8.20892
-8.2993
-8.3899
-6.17037
-6.6067
-6.90906
-7.04348
-7.16429
-7.30115
-7.42687
-7.53276
-7.62605
-7.71302
-7.79551
-7.87476
-7.9519
-8.0285
-8.10582
-8.18487
-8.26088
-8.32329
-6.31826
-6.63164
-6.91796
-7.06271
-7.17818
-7.30502
-7.42458
-7.52736
-7.61879
-7.70404
-7.785
-7.86269
-7.9381
-8.01216
-8.08535
-8.15717
-8.22258
-8.27342
-6.44429
-6.67893
-6.93469
-7.07951
-7.19052
-7.30993
-7.42473
-7.52511
-7.61484
-7.69846
-7.77787
-7.85376
-7.92689
-7.99775
-8.06631
-8.13138
-8.18894
-8.23323
-6.55908
-6.73187
-6.95075
-7.09321
-7.2024
-7.31584
-7.42581
-7.52346
-7.61123
-7.69304
-7.77058
-7.84432
-7.91481
-7.98225
-8.04631
-8.10562
-8.15719
-8.19702
-6.66339
-6.78797
-6.9709
-7.10784
-7.21469
-7.3219
-7.42642
-7.5209
-7.60646
-7.68626
-7.76168
-7.83313
-7.90087
-7.96496
-8.02489
-8.07942
-8.12646
-8.16351
-6.74369
-6.83801
-6.99314
-7.12218
-7.22574
-7.32744
-7.42699
-7.51835
-7.6017
-7.67949
-7.75288
-7.82218
-7.8875
-7.94879
-8.00554
-8.0567
-8.10085
-8.13635
-6.80898
-6.88315
-7.01558
-7.13611
-7.23611
-7.33287
-7.42783
-7.51615
-7.59728
-7.67306
-7.74446
-7.81172
-7.87484
-7.93371
-7.98784
-8.03643
-8.07848
-8.11296
-6.87401
-6.93183
-7.0424
-7.15268
-7.24809
-7.33947
-7.42933
-7.51402
-7.59247
-7.66582
-7.73488
-7.79979
-7.86049
-7.9168
-7.96833
-8.01449
-8.05469
-8.08831
-6.93794
-6.98274
-7.0734
-7.17208
-7.26169
-7.34731
-7.43162
-7.51211
-7.58736
-7.65788
-7.72423
-7.7865
-7.84456
-7.89822
-7.9472
-7.99111
-8.02966
-8.06253
-6.99973
-7.03443
-7.10782
-7.19418
-7.27683
-7.35634
-7.43476
-7.5105
-7.58204
-7.64931
-7.71261
-7.77197
-7.82723
-7.87821
-7.92472
-7.96655
-8.0036
-8.03577
-7.05823
-7.08526
-7.14425
-7.21841
-7.2932
-7.36629
-7.43862
-7.50918
-7.57653
-7.64017
-7.70014
-7.75638
-7.80873
-7.85704
-7.90119
-7.94109
-7.97677
-8.00823
-7.11204
-7.13332
-7.18077
-7.24363
-7.31017
-7.37662
-7.44282
-7.50797
-7.57078
-7.6305
-7.68693
-7.73994
-7.78935
-7.83505
-7.87695
-7.91505
-7.94945
-7.9802
-7.15935
-7.17638
-7.21491
-7.26798
-7.32653
-7.38641
-7.44666
-7.50643
-7.56458
-7.62027
-7.67309
-7.72286
-7.76939
-7.81258
-7.85239
-7.88883
-7.92203
-7.95206
-7.1977
-7.21169
-7.24366
-7.2889
-7.34041
-7.39427
-7.44905
-7.50381
-7.5575
-7.60928
-7.65864
-7.70533
-7.74916
-7.79004
-7.82793
-7.86287
-7.89495
-7.92428
-7.22364
-7.23562
-7.26321
-7.30294
-7.34908
-7.39806
-7.44834
-7.4989
-7.54876
-7.59711
-7.64343
-7.68742
-7.7289
-7.76778
-7.80402
-7.83766
-7.86879
-7.89751
-7.23146
-7.24259
-7.26836
-7.3056
-7.349
-7.39521
-7.44275
-7.49068
-7.53804
-7.58408
-7.62829
-7.67039
-7.7102
-7.74766
-7.78272
-7.81545
-7.84589
-7.87417
-7.2207
-7.23223
-7.25879
-7.2967
-7.34021
-7.38602
-7.43288
-7.47999
-7.52645
-7.57152
-7.61475
-7.65592
-7.69489
-7.73159
-7.76604
-7.79827
-7.82836
-7.85642
-7.19613
-7.20916
-7.23887
-7.28012
-7.32593
-7.37306
-7.42076
-7.46845
-7.51519
-7.56029
-7.60338
-7.64433
-7.68304
-7.7195
-7.7537
-7.78575
-7.81571
-7.84373
-7.16078
-7.17663
-7.21208
-7.25906
-7.30868
-7.3582
-7.40779
-7.45699
-7.50478
-7.55051
-7.59398
-7.63516
-7.67398
-7.71045
-7.74465
-7.77667
-7.80664
-7.83469
-7.11632
-7.13683
-7.18121
-7.23612
-7.29036
-7.3428
-7.39497
-7.44631
-7.49557
-7.54227
-7.58643
-7.62808
-7.66721
-7.70385
-7.73814
-7.7702
-7.80021
-7.82833
-7.06343
-7.09147
-7.14883
-7.21338
-7.27225
-7.32784
-7.38308
-7.43687
-7.48775
-7.53555
-7.58056
-7.62283
-7.66236
-7.69923
-7.73362
-7.76574
-7.79577
-7.82394
-7.00202
-7.04221
-7.11759
-7.1924
-7.25504
-7.31387
-7.37263
-7.42895
-7.48137
-7.53028
-7.5762
-7.61913
-7.65907
-7.69614
-7.7306
-7.76272
-7.79273
-7.82092
-6.93134
-6.99073
-7.09027
-7.17451
-7.23914
-7.30114
-7.36362
-7.42237
-7.47618
-7.52619
-7.57303
-7.61663
-7.65692
-7.69413
-7.72856
-7.76055
-7.79041
-7.8185
-6.8506
-6.93866
-7.0682
-7.16009
-7.22514
-7.29001
-7.35576
-7.41636
-7.47127
-7.52233
-7.57014
-7.61447
-7.65522
-7.69264
-7.72709
-7.75899
-7.78874
-7.81692
-6.75926
-6.88991
-7.04898
-7.14466
-7.21101
-7.28014
-7.34911
-7.41106
-7.46673
-7.51863
-7.56721
-7.61205
-7.65303
-7.69043
-7.72465
-7.75617
-7.78551
-7.81343
-6.6478
-6.85734
-7.03643
-7.12385
-7.19109
-7.26723
-7.34134
-7.40604
-7.46389
-7.51794
-7.56837
-7.61459
-7.65647
-7.69433
-7.72865
-7.76004
-7.78926
-7.81796
-6.47389
-6.84871
-7.05971
-7.12756
-7.18617
-7.26283
-7.33726
-7.40112
-7.45865
-7.51312
-7.56423
-7.61099
-7.65322
-7.69107
-7.72481
-7.75507
-7.78304
-7.80997
-6.21534
-6.775
-7.05132
-7.12669
-7.18941
-7.27202
-7.35016
-7.41559
-7.47421
-7.52982
-7.58192
-7.62937
-7.67189
-7.70948
-7.74166
-7.76898
-7.79316
-7.81344
-8.81875
-8.81888
-8.81899
-8.81918
-8.8192
-8.81808
-8.81497
-8.81033
-8.80556
-8.80193
-8.80089
-8.80309
-8.80822
-8.81551
-8.82403
-8.83291
-8.84137
-8.84877
-8.8546
-8.85851
-8.86055
-8.86122
-8.86084
-8.85959
-8.8577
-8.85553
-8.85347
-8.85186
-8.85083
-8.85037
-8.85025
-8.85015
-8.84985
-8.84933
-8.84865
-8.84792
-8.84719
-8.84639
-8.84534
-8.84385
-8.84194
-8.83992
-8.83828
-8.83771
-8.83855
-8.84053
-8.84286
-8.84486
-8.84625
-8.84734
-8.8486
-8.85021
-8.85323
-8.85945
-8.86612
-8.86848
-8.86472
-8.85963
-8.86035
-8.87497
-8.90753
-8.95919
-9.02806
-9.11069
-9.20246
-9.29828
-9.39354
-9.48487
-9.56992
-9.64734
-9.71642
-9.77702
-9.82927
-9.87353
-9.91017
-9.93964
-9.96228
-9.97843
-9.98832
-9.99219
-9.99014
-9.98232
-9.96875
-9.94949
-9.92448
-9.89372
-9.85713
-9.81463
-9.76614
-9.7116
-9.65098
-9.58423
-9.51132
-9.43227
-9.34709
-9.25573
-9.15789
-9.05322
-8.94155
-8.82295
-8.69755
-8.56538
-8.42648
-8.28089
-8.12867
-7.96989
-7.80467
-7.6331
-7.45534
-7.27153
-7.08191
-6.88666
-6.68606
-6.48034
-6.26978
-6.05469
-5.8354
-5.61223
-5.38557
-5.15576
-4.92321
-4.68829
-4.45143
-4.21302
-3.97349
-3.73322
-3.49258
-3.25188
-3.01143
-2.77161
-2.53273
-2.29509
-2.05899
-1.82473
-1.59257
-1.36273
-1.13538
-0.910687
-0.688801
-0.469862
-0.25393
-0.0410879
0.168665
0.375276
0.578813
0.779322
0.976955
1.17174
1.36372
1.55302
1.73982
1.92428
2.10663
2.28706
2.46575
2.64294
2.81888
2.99383
3.16805
3.34183
3.51544
3.68921
3.86346
4.03853
4.21474
4.39239
4.57182
4.7533
4.93714
5.12363
5.31301
5.50554
5.70146
5.90094
6.10411
6.31101
6.52193
6.7372
6.95525
7.16346
-8.82031
-8.8206
-8.82122
-8.82205
-8.82239
-8.82164
-8.81927
-8.81576
-8.8127
-8.81154
-8.8129
-8.81685
-8.82297
-8.83055
-8.83882
-8.84709
-8.8548
-8.86154
-8.86703
-8.87119
-8.87382
-8.87466
-8.87374
-8.87135
-8.86791
-8.8639
-8.85986
-8.85629
-8.85356
-8.85177
-8.85071
-8.84997
-8.84919
-8.84837
-8.84774
-8.84739
-8.84719
-8.84687
-8.84621
-8.84501
-8.84333
-8.84162
-8.84054
-8.8406
-8.84193
-8.84399
-8.84592
-8.84707
-8.84721
-8.84724
-8.84779
-8.84689
-8.84442
-8.84417
-8.85108
-8.86278
-8.86971
-8.86992
-8.87505
-8.89509
-8.93466
-8.99424
-9.07092
-9.15964
-9.25443
-9.35003
-9.44243
-9.52902
-9.60828
-9.67954
-9.74263
-9.79774
-9.84521
-9.88542
-9.91874
-9.94554
-9.96609
-9.98064
-9.98936
-9.9924
-9.98983
-9.98171
-9.96806
-9.94886
-9.92409
-9.89369
-9.85758
-9.81569
-9.7679
-9.71417
-9.65442
-9.58856
-9.51652
-9.43817
-9.35339
-9.26202
-9.16403
-9.0595
-8.94844
-8.83078
-8.70643
-8.57536
-8.43757
-8.2931
-8.14199
-7.98433
-7.82019
-7.64971
-7.47302
-7.29027
-7.10165
-6.90737
-6.70768
-6.50283
-6.29309
-6.07877
-5.86018
-5.63764
-5.41152
-5.18216
-4.94996
-4.71533
-4.47865
-4.2403
-4.00069
-3.7602
-3.51921
-3.27818
-3.03751
-2.79746
-2.55833
-2.32041
-2.084
-1.84939
-1.61683
-1.38655
-1.1587
-0.933497
-0.711091
-0.491601
-0.275121
-0.0617114
0.148604
0.355805
0.559916
0.761012
0.959197
1.1545
1.34698
1.53677
1.72401
1.9089
2.09164
2.27242
2.45143
2.6289
2.80509
2.98024
3.15462
3.32849
3.50215
3.67592
3.85012
4.02508
4.20112
4.37855
4.5577
4.73885
4.92231
5.10834
5.29724
5.48923
5.68457
5.88344
6.08598
6.29226
6.50263
6.71685
6.93652
7.14073
-8.8219
-8.82196
-8.82215
-8.82246
-8.82273
-8.82272
-8.82255
-8.82288
-8.82449
-8.8278
-8.83279
-8.83917
-8.84647
-8.8542
-8.86187
-8.8691
-8.87554
-8.88098
-8.88525
-8.88827
-8.88999
-8.89033
-8.88934
-8.88716
-8.88396
-8.87995
-8.87532
-8.87035
-8.86531
-8.86046
-8.85604
-8.85221
-8.84913
-8.84693
-8.84564
-8.84503
-8.84465
-8.84406
-8.84308
-8.84185
-8.84074
-8.84036
-8.84124
-8.84346
-8.84647
-8.84907
-8.85023
-8.84918
-8.84528
-8.84025
-8.83705
-8.83819
-8.84198
-8.84686
-8.85808
-8.87759
-8.90218
-8.92995
-8.96392
-9.00762
-9.06207
-9.12623
-9.19793
-9.27439
-9.35269
-9.43032
-9.5053
-9.57621
-9.6421
-9.70239
-9.75676
-9.80509
-9.84738
-9.8837
-9.91416
-9.93888
-9.95798
-9.97156
-9.97969
-9.98243
-9.9798
-9.97181
-9.95844
-9.93966
-9.9154
-9.88562
-9.85023
-9.80914
-9.76225
-9.70949
-9.6508
-9.5861
-9.51527
-9.43821
-9.35476
-9.26477
-9.16815
-9.06495
-8.9552
-8.83886
-8.71587
-8.58618
-8.4498
-8.30674
-8.15704
-8.00077
-7.83801
-7.66888
-7.49352
-7.31208
-7.12474
-6.93171
-6.7332
-6.52948
-6.32081
-6.10749
-5.88982
-5.66814
-5.44278
-5.21412
-4.98253
-4.74841
-4.51215
-4.27415
-4.0348
-3.79449
-3.55364
-3.31266
-3.07194
-2.83178
-2.59247
-2.35432
-2.11764
-1.88271
-1.64981
-1.41913
-1.19087
-0.965201
-0.742292
-0.522271
-0.305257
-0.0912951
0.119571
0.327324
0.531974
0.733602
0.932281
1.12804
1.32098
1.5112
1.69883
1.88407
2.06712
2.24813
2.42735
2.60498
2.78128
2.95648
3.13084
3.30463
3.47815
3.6517
3.82559
4.00014
4.17569
4.35254
4.53103
4.71144
4.89407
5.07919
5.26707
5.45798
5.65217
5.84983
6.05115
6.25618
6.46543
6.6779
6.89901
7.09771
-8.82289
-8.82262
-8.82225
-8.82219
-8.82318
-8.82576
-8.82988
-8.83528
-8.84165
-8.84872
-8.85619
-8.8638
-8.87131
-8.87849
-8.88515
-8.89109
-8.89615
-8.90021
-8.90316
-8.90497
-8.90561
-8.90509
-8.90343
-8.90072
-8.89706
-8.89255
-8.8873
-8.88143
-8.87505
-8.86833
-8.86147
-8.85475
-8.84851
-8.84308
-8.83866
-8.83522
-8.83259
-8.83057
-8.82915
-8.8287
-8.82986
-8.83308
-8.83791
-8.843
-8.8467
-8.8475
-8.84555
-8.84218
-8.839
-8.83757
-8.83948
-8.84757
-8.86268
-8.88326
-8.90943
-8.94163
-8.97894
-9.02037
-9.06558
-9.1151
-9.16925
-9.2278
-9.29006
-9.35485
-9.42076
-9.48632
-9.5502
-9.61129
-9.66874
-9.72192
-9.77041
-9.81396
-9.85243
-9.88574
-9.91389
-9.93687
-9.95472
-9.96744
-9.97503
-9.97749
-9.9748
-9.96693
-9.95383
-9.93545
-9.91172
-9.88254
-9.84784
-9.80751
-9.76145
-9.70958
-9.65181
-9.58807
-9.51824
-9.4422
-9.35983
-9.27101
-9.17565
-9.07375
-8.96529
-8.85024
-8.72854
-8.60016
-8.46509
-8.32335
-8.17496
-8.01998
-7.85851
-7.69063
-7.51649
-7.33623
-7.15004
-6.95811
-6.76067
-6.55796
-6.35024
-6.1378
-5.92095
-5.70002
-5.47534
-5.24727
-5.01619
-4.78251
-4.5466
-4.30886
-4.06971
-3.82953
-3.58875
-3.34776
-3.10693
-2.86659
-2.62706
-2.38864
-2.15163
-1.91634
-1.68302
-1.45191
-1.22319
-0.997041
-0.773635
-0.553092
-0.33553
-0.121017
0.0903937
0.298688
0.503875
0.706022
0.905188
1.1014
1.29478
1.48541
1.67343
1.85902
2.04236
2.22362
2.40304
2.58084
2.75726
2.93251
3.10687
3.2806
3.45399
3.62736
3.80099
3.9752
4.15032
4.32666
4.50456
4.68428
4.86613
5.05039
5.23732
5.42718
5.62022
5.81668
6.01673
6.22036
6.42815
6.63837
6.85938
7.05193
-8.8249
-8.82435
-8.82382
-8.82483
-8.82884
-8.83551
-8.84373
-8.85265
-8.86166
-8.87037
-8.87861
-8.8863
-8.89341
-8.89986
-8.90557
-8.91043
-8.91436
-8.91729
-8.91914
-8.91991
-8.91958
-8.91815
-8.91565
-8.91213
-8.90764
-8.90224
-8.89601
-8.88901
-8.88136
-8.87315
-8.86448
-8.85552
-8.84649
-8.83775
-8.82966
-8.82262
-8.81701
-8.81326
-8.81185
-8.81324
-8.81754
-8.82384
-8.83015
-8.83485
-8.83745
-8.83813
-8.83792
-8.83841
-8.84161
-8.84951
-8.86309
-8.8833
-8.91008
-8.94232
-8.9787
-9.01806
-9.05976
-9.10355
-9.14972
-9.19865
-9.25049
-9.305
-9.36165
-9.41959
-9.47789
-9.53558
-9.59172
-9.64555
-9.6964
-9.74379
-9.78731
-9.82669
-9.86173
-9.89228
-9.91825
-9.93957
-9.95615
-9.96796
-9.97494
-9.97703
-9.97419
-9.96634
-9.95342
-9.93534
-9.91202
-9.88335
-9.84923
-9.80955
-9.7642
-9.71309
-9.65613
-9.59322
-9.52425
-9.44911
-9.36768
-9.27986
-9.18556
-9.08475
-8.97736
-8.86337
-8.74272
-8.61538
-8.48135
-8.34063
-8.19326
-8.03927
-7.87877
-7.71183
-7.53859
-7.3592
-7.17384
-6.98269
-6.78599
-6.58396
-6.37688
-6.16501
-5.94869
-5.72821
-5.50392
-5.27619
-5.04538
-4.81189
-4.57611
-4.33845
-4.09931
-3.8591
-3.61824
-3.3771
-3.13607
-2.8955
-2.65569
-2.41698
-2.17966
-1.94402
-1.71033
-1.47883
-1.2497
-1.02316
-0.799347
-0.578408
-0.360424
-0.14551
0.0663038
0.274982
0.48056
0.683067
0.882548
1.07905
1.27267
1.46353
1.65174
1.8375
2.02097
2.20232
2.38178
2.55961
2.73599
2.91117
3.08542
3.259
3.43219
3.60532
3.77865
3.9525
4.1272
4.30306
4.4804
4.65951
4.84066
5.02416
5.21029
5.39927
5.59134
5.78674
5.98566
6.18803
6.39446
6.60252
6.82261
7.00912
-8.82916
-8.82815
-8.8283
-8.83251
-8.84047
-8.85021
-8.86047
-8.87058
-8.88011
-8.88893
-8.89703
-8.90442
-8.91107
-8.91693
-8.92193
-8.92601
-8.92912
-8.9312
-8.93222
-8.93217
-8.93104
-8.92885
-8.92561
-8.92135
-8.91612
-8.90994
-8.90283
-8.89483
-8.88602
-8.8765
-8.86636
-8.85569
-8.84469
-8.83367
-8.82312
-8.81372
-8.8064
-8.80204
-8.80131
-8.80403
-8.80873
-8.81383
-8.81833
-8.82203
-8.82543
-8.82945
-8.83538
-8.84456
-8.85846
-8.87797
-8.90307
-8.93326
-8.9674
-9.00459
-9.04431
-9.08599
-9.12941
-9.1744
-9.22101
-9.26932
-9.31922
-9.37047
-9.42267
-9.4753
-9.52774
-9.57938
-9.62959
-9.67783
-9.72357
-9.76641
-9.80599
-9.84202
-9.87426
-9.90251
-9.92663
-9.94647
-9.96193
-9.97289
-9.97928
-9.981
-9.97797
-9.9701
-9.95729
-9.93943
-9.91643
-9.88816
-9.85451
-9.81536
-9.7706
-9.72011
-9.66382
-9.60159
-9.53334
-9.45893
-9.37826
-9.29124
-9.19776
-9.09777
-8.9912
-8.87801
-8.75813
-8.63155
-8.49825
-8.35824
-8.21154
-8.05821
-7.89832
-7.73197
-7.55928
-7.3804
-7.1955
-7.00477
-6.80844
-6.60674
-6.39994
-6.18831
-5.97216
-5.75181
-5.5276
-5.29989
-5.06906
-4.8355
-4.59961
-4.36179
-4.12245
-3.88202
-3.6409
-3.39948
-3.15815
-2.91725
-2.67713
-2.4381
-2.20047
-1.96452
-1.73051
-1.49869
-1.26926
-1.04243
-0.81836
-0.597162
-0.378937
-0.163788
0.0482341
0.25711
0.462858
0.665503
0.865066
1.06162
1.25525
1.44609
1.63425
1.81992
2.00326
2.18446
2.36374
2.54134
2.71747
2.89236
3.06628
3.23951
3.41232
3.58502
3.75788
3.93123
4.10537
4.28064
4.45736
4.6358
4.81623
4.99895
5.18426
5.37237
5.56356
5.75799
5.95588
6.15709
6.3623
6.56854
6.78779
6.96884
-8.83515
-8.83433
-8.83669
-8.84444
-8.85468
-8.86529
-8.87565
-8.88548
-8.89466
-8.90317
-8.91098
-8.91805
-8.92433
-8.92974
-8.93424
-8.93777
-8.94029
-8.94176
-8.94218
-8.94152
-8.93981
-8.93703
-8.93323
-8.92842
-8.9226
-8.91575
-8.90786
-8.89903
-8.88937
-8.87895
-8.86784
-8.85613
-8.84405
-8.83204
-8.82072
-8.81093
-8.8038
-8.80014
-8.79961
-8.80074
-8.8025
-8.805
-8.80855
-8.81363
-8.82081
-8.83091
-8.84519
-8.86426
-8.88798
-8.91584
-8.9473
-8.98199
-9.0193
-9.05876
-9.10011
-9.14304
-9.18732
-9.23274
-9.27914
-9.32643
-9.37447
-9.4231
-9.47201
-9.52086
-9.56924
-9.61671
-9.66282
-9.70714
-9.74927
-9.78885
-9.82553
-9.85905
-9.88914
-9.9156
-9.93823
-9.95688
-9.9714
-9.98166
-9.98753
-9.98892
-9.98571
-9.97779
-9.96505
-9.94737
-9.92461
-9.89666
-9.86339
-9.82466
-9.78035
-9.73036
-9.67458
-9.6129
-9.5452
-9.47136
-9.39129
-9.30486
-9.21199
-9.1126
-9.00661
-8.89396
-8.7746
-8.6485
-8.51565
-8.37606
-8.22974
-8.07675
-7.91715
-7.75106
-7.57859
-7.39988
-7.21512
-7.02449
-6.8282
-6.62651
-6.41966
-6.20795
-5.99166
-5.77114
-5.54671
-5.31875
-5.08763
-4.85375
-4.6175
-4.37931
-4.13958
-3.89875
-3.65722
-3.4154
-3.17366
-2.93237
-2.69187
-2.45249
-2.21454
-1.97829
-1.744
-1.51192
-1.28228
-1.05525
-0.831023
-0.609682
-0.391363
-0.176136
0.0359273
0.244816
0.450532
0.653091
0.85253
1.04891
1.24234
1.43292
1.6208
1.80614
1.98913
2.16994
2.34881
2.52595
2.70161
2.876
3.04939
3.22204
3.39427
3.56635
3.7386
3.91128
4.08472
4.25926
4.4352
4.61285
4.79247
4.97437
5.15881
5.34604
5.53632
5.72983
5.92674
6.1269
6.33105
6.53579
6.75445
6.93088
-8.84074
-8.84118
-8.84671
-8.85636
-8.86671
-8.87682
-8.88657
-8.89588
-8.90468
-8.9129
-8.92045
-8.92726
-8.93325
-8.93836
-8.94252
-8.94569
-8.94783
-8.94892
-8.94894
-8.9479
-8.94579
-8.94263
-8.93845
-8.93325
-8.92694
-8.91949
-8.91104
-8.90174
-8.89168
-8.88089
-8.86948
-8.85764
-8.8456
-8.83387
-8.82325
-8.8147
-8.8088
-8.80517
-8.80265
-8.80074
-8.80025
-8.80202
-8.80655
-8.81477
-8.82746
-8.84461
-8.86596
-8.89103
-8.91953
-8.95116
-8.98556
-9.02245
-9.06148
-9.10231
-9.14465
-9.18821
-9.23274
-9.27804
-9.32397
-9.37041
-9.41719
-9.46412
-9.51098
-9.55748
-9.60331
-9.64814
-9.69161
-9.73338
-9.77309
-9.81044
-9.84512
-9.87686
-9.90542
-9.93057
-9.95212
-9.96987
-9.98368
-9.99338
-9.99885
-9.99997
-9.99662
-9.98868
-9.976
-9.95846
-9.93591
-9.90821
-9.87523
-9.83683
-9.79287
-9.74324
-9.68785
-9.62658
-9.55929
-9.48588
-9.40623
-9.32023
-9.22777
-9.12876
-9.02313
-8.9108
-8.79172
-8.66587
-8.53322
-8.39378
-8.24758
-8.09465
-7.93509
-7.76898
-7.59645
-7.41764
-7.23273
-7.04191
-6.84539
-6.64343
-6.43627
-6.2242
-6.00753
-5.78658
-5.56169
-5.33324
-5.1016
-4.86718
-4.63039
-4.39164
-4.15136
-3.90998
-3.66792
-3.42558
-3.18335
-2.94161
-2.70069
-2.46094
-2.22266
-1.98611
-1.75158
-1.5193
-1.2895
-1.06236
-0.838051
-0.616682
-0.398381
-0.183216
0.0287515
0.237492
0.443011
0.645314
0.844448
1.04048
1.23352
1.42367
1.61109
1.79592
1.97836
2.15859
2.33685
2.51336
2.68836
2.86208
3.03478
3.20672
3.37819
3.5495
3.72095
3.89282
4.06543
4.23912
4.4142
4.59096
4.76969
4.95069
5.13423
5.32058
5.50997
5.70259
5.8986
6.09782
6.30105
6.50449
6.72277
6.89548
-8.84409
-8.84648
-8.85437
-8.86411
-8.87373
-8.88318
-8.89242
-8.90135
-8.90988
-8.9179
-8.92529
-8.93196
-8.93782
-8.94278
-8.94679
-8.94979
-8.95176
-8.95267
-8.9525
-8.95127
-8.94898
-8.94563
-8.94125
-8.93576
-8.92911
-8.9214
-8.91284
-8.90356
-8.8936
-8.88298
-8.87187
-8.86055
-8.84948
-8.83925
-8.8304
-8.8232
-8.81727
-8.81201
-8.80731
-8.8039
-8.8031
-8.80601
-8.81344
-8.82567
-8.84231
-8.86283
-8.887
-8.91455
-8.94524
-8.97879
-9.01483
-9.05303
-9.09308
-9.13468
-9.17754
-9.22141
-9.26607
-9.31136
-9.35711
-9.40316
-9.44931
-9.49537
-9.54113
-9.58636
-9.63078
-9.6741
-9.71604
-9.7563
-9.79456
-9.83056
-9.864
-9.89463
-9.9222
-9.94651
-9.96733
-9.98448
-9.99779
-10.0071
-10.0123
-10.0132
-10.0098
-10.0018
-9.98924
-9.97183
-9.94945
-9.92196
-9.88922
-9.85107
-9.80737
-9.75802
-9.70291
-9.64191
-9.57491
-9.50179
-9.42241
-9.33667
-9.24444
-9.14563
-9.04015
-8.92794
-8.80893
-8.6831
-8.55043
-8.41093
-8.26462
-8.11154
-7.95178
-7.78542
-7.6126
-7.43345
-7.24817
-7.05692
-6.85995
-6.65748
-6.44979
-6.23714
-6.01987
-5.79829
-5.57275
-5.34361
-5.11129
-4.87616
-4.63866
-4.39921
-4.15826
-3.91622
-3.67354
-3.43061
-3.18783
-2.94559
-2.70425
-2.46412
-2.22552
-1.98871
-1.75397
-1.52155
-1.29165
-1.06449
-0.840186
-0.618904
-0.400729
-0.185745
0.0259987
0.234455
0.439624
0.641522
0.840188
1.03572
1.2282
1.41777
1.60455
1.78872
1.97046
2.14997
2.32746
2.50318
2.67735
2.85024
3.02207
3.19315
3.36375
3.53417
3.7047
3.87565
4.04734
4.22009
4.39422
4.57004
4.74783
4.92791
5.11055
5.29603
5.48458
5.67638
5.87161
6.07
6.27248
6.4748
6.69286
6.86278
-8.84395
-8.84818
-8.85664
-8.86567
-8.87469
-8.88373
-8.89268
-8.90144
-8.90989
-8.91788
-8.9253
-8.93202
-8.93793
-8.94297
-8.94705
-8.95013
-8.95217
-8.95315
-8.95304
-8.95184
-8.94956
-8.9462
-8.94175
-8.93615
-8.92946
-8.92186
-8.91351
-8.90448
-8.89484
-8.88475
-8.87447
-8.86435
-8.8548
-8.84605
-8.83793
-8.83031
-8.82316
-8.81665
-8.8114
-8.80856
-8.80932
-8.81433
-8.82364
-8.83724
-8.85494
-8.87657
-8.90193
-8.93078
-8.96272
-8.99735
-9.0343
-9.07324
-9.1139
-9.156
-9.19929
-9.24353
-9.28853
-9.3341
-9.38002
-9.42611
-9.47219
-9.51806
-9.5635
-9.60828
-9.65216
-9.69487
-9.73616
-9.77576
-9.81337
-9.84873
-9.88156
-9.91161
-9.93866
-9.96249
-9.98288
-9.99966
-10.0127
-10.0217
-10.0267
-10.0276
-10.0241
-10.0162
-10.0037
-9.98648
-9.96428
-9.93698
-9.90443
-9.86648
-9.82297
-9.7738
-9.71886
-9.65804
-9.5912
-9.51823
-9.43899
-9.35336
-9.2612
-9.16242
-9.05693
-8.94465
-8.82553
-8.69954
-8.56667
-8.42692
-8.28031
-8.1269
-7.96674
-7.79996
-7.62665
-7.44699
-7.26114
-7.06929
-6.87168
-6.66853
-6.46012
-6.24674
-6.0287
-5.80632
-5.57997
-5.35002
-5.11686
-4.88091
-4.64259
-4.40235
-4.16062
-3.91786
-3.67449
-3.43093
-3.18758
-2.94484
-2.70307
-2.4626
-2.22371
-1.98668
-1.75177
-1.51927
-1.28936
-1.06224
-0.838059
-0.61696
-0.399023
-0.184323
0.0270766
0.235133
0.439834
0.641203
0.839293
1.03419
1.22599
1.41483
1.60084
1.78419
1.96508
2.1437
2.32028
2.49505
2.66827
2.84017
3.01102
3.1811
3.3507
3.52011
3.68963
3.85957
4.03025
4.20199
4.37512
4.54994
4.72677
4.90591
5.08767
5.27229
5.46005
5.6511
5.84562
6.0433
6.24517
6.44654
6.66445
6.83245
-8.83812
-8.8434
-8.85145
-8.86
-8.86886
-8.87784
-8.88681
-8.89568
-8.9043
-8.91254
-8.92024
-8.92727
-8.93352
-8.93889
-8.9433
-8.9467
-8.94903
-8.95028
-8.95041
-8.94942
-8.94732
-8.94411
-8.93976
-8.93431
-8.92783
-8.92051
-8.91247
-8.90384
-8.89478
-8.88558
-8.87641
-8.86729
-8.85824
-8.84931
-8.8405
-8.83192
-8.82393
-8.81719
-8.81259
-8.81088
-8.81264
-8.81826
-8.82798
-8.84197
-8.86022
-8.88261
-8.90884
-8.9385
-8.97112
-9.00632
-9.0438
-9.08327
-9.12445
-9.16709
-9.21093
-9.25576
-9.30133
-9.34743
-9.39386
-9.44044
-9.48695
-9.5332
-9.57895
-9.62395
-9.66796
-9.71074
-9.75204
-9.79159
-9.82911
-9.86435
-9.89705
-9.92696
-9.95385
-9.97751
-9.99774
-10.0144
-10.0272
-10.0362
-10.0411
-10.0419
-10.0385
-10.0307
-10.0184
-10.0013
-9.97923
-9.95211
-9.91973
-9.88192
-9.83854
-9.78946
-9.7346
-9.67385
-9.60708
-9.53415
-9.45494
-9.36928
-9.27707
-9.17818
-9.07252
-8.96002
-8.84064
-8.71434
-8.58112
-8.44098
-8.29395
-8.14006
-7.97939
-7.81204
-7.63812
-7.45782
-7.27127
-7.0787
-6.88031
-6.67637
-6.46712
-6.25288
-6.03396
-5.81069
-5.58343
-5.35257
-5.11849
-4.88164
-4.64243
-4.40134
-4.15881
-3.91528
-3.6712
-3.42699
-3.18307
-2.93985
-2.69768
-2.4569
-2.21777
-1.98056
-1.74556
-1.51301
-1.28316
-1.05615
-0.832171
-0.611325
-0.393712
-0.179394
0.0315541
0.239086
0.443198
0.643906
0.841288
1.03542
1.2264
1.41436
1.59946
1.78186
1.96175
2.13935
2.31487
2.48857
2.66069
2.83148
3.00123
3.17021
3.33871
3.50702
3.67545
3.84431
4.01392
4.18461
4.35669
4.53049
4.70634
4.88454
5.06542
5.24924
5.43627
5.62666
5.82057
6.01767
6.21904
6.41972
6.63741
6.80418
-8.82416
-8.82964
-8.83744
-8.84632
-8.85563
-8.865
-8.87437
-8.88367
-8.89276
-8.90152
-8.90977
-8.91736
-8.92418
-8.93011
-8.93506
-8.93897
-8.94178
-8.94346
-8.94399
-8.94338
-8.94162
-8.93871
-8.93466
-8.92955
-8.92348
-8.91664
-8.90918
-8.90119
-8.89276
-8.88396
-8.87484
-8.86542
-8.85573
-8.84585
-8.83602
-8.82668
-8.8184
-8.81179
-8.80741
-8.80585
-8.80773
-8.81356
-8.82369
-8.8383
-8.85731
-8.88043
-8.90725
-8.93736
-8.97038
-9.00599
-9.04392
-9.08392
-9.12571
-9.16902
-9.21361
-9.25922
-9.3056
-9.35254
-9.39982
-9.44723
-9.49455
-9.54155
-9.58801
-9.63368
-9.67832
-9.72168
-9.7635
-9.8035
-9.8414
-9.87694
-9.90986
-9.93994
-9.96695
-9.99068
-10.0109
-10.0275
-10.0403
-10.0492
-10.0541
-10.055
-10.0516
-10.0439
-10.0316
-10.0146
-9.99277
-9.96582
-9.93361
-9.89596
-9.85267
-9.80365
-9.74882
-9.68807
-9.62128
-9.54831
-9.46902
-9.38325
-9.29086
-9.19174
-9.0858
-8.97297
-8.85322
-8.72652
-8.59286
-8.45225
-8.30471
-8.15027
-7.989
-7.821
-7.64642
-7.46539
-7.27809
-7.08472
-6.8855
-6.68069
-6.47055
-6.25539
-6.03554
-5.81133
-5.58312
-5.35131
-5.1163
-4.87853
-4.63844
-4.39649
-4.15314
-3.90884
-3.66404
-3.41918
-3.1747
-2.93101
-2.68848
-2.44741
-2.20807
-1.97072
-1.73566
-1.50315
-1.2734
-1.0466
-0.822899
-0.602404
-0.385208
-0.171388
0.0389843
0.245862
0.449245
0.649168
0.845705
1.03894
1.22897
1.41592
1.59997
1.78128
1.96006
2.13652
2.31088
2.4834
2.65434
2.82393
2.99246
3.16024
3.32754
3.49467
3.66193
3.82966
3.99816
4.16776
4.33876
4.51149
4.68632
4.86358
5.04359
5.22664
5.413
5.60282
5.79619
5.99282
6.19376
6.39408
6.61139
6.77732
-8.80062
-8.80581
-8.81423
-8.82435
-8.8347
-8.84485
-8.85489
-8.86488
-8.87473
-8.88428
-8.89336
-8.90178
-8.90939
-8.91607
-8.92173
-8.92632
-8.92978
-8.93207
-8.93319
-8.93313
-8.93189
-8.92949
-8.92598
-8.92143
-8.91594
-8.9096
-8.90248
-8.89462
-8.88606
-8.87682
-8.86695
-8.85651
-8.84566
-8.83469
-8.824
-8.81403
-8.80521
-8.79814
-8.79348
-8.79194
-8.79415
-8.80059
-8.8115
-8.8269
-8.84655
-8.87013
-8.89729
-8.92771
-8.96109
-8.99717
-9.03567
-9.07631
-9.11881
-9.1629
-9.20832
-9.25481
-9.30214
-9.35008
-9.39843
-9.44693
-9.49534
-9.54342
-9.59092
-9.63761
-9.68324
-9.72755
-9.77025
-9.81107
-9.84969
-9.88582
-9.91915
-9.94949
-9.97667
-10.0005
-10.0207
-10.0372
-10.0498
-10.0587
-10.0636
-10.0645
-10.0613
-10.0537
-10.0416
-10.0248
-10.0031
-9.97633
-9.94435
-9.9069
-9.86377
-9.81486
-9.76006
-9.69929
-9.63244
-9.55936
-9.47989
-9.39391
-9.30125
-9.20182
-9.09551
-8.98228
-8.8621
-8.73494
-8.60081
-8.45969
-8.3116
-8.15657
-7.99468
-7.82602
-7.65075
-7.46899
-7.28095
-7.08679
-6.88675
-6.68106
-6.47003
-6.25396
-6.03319
-5.80805
-5.57892
-5.34618
-5.11026
-4.87158
-4.63061
-4.38782
-4.14367
-3.89863
-3.65314
-3.40768
-3.16268
-2.91857
-2.67572
-2.43443
-2.19494
-1.95754
-1.72252
-1.49015
-1.26063
-1.03414
-0.810828
-0.590808
-0.374162
-0.160976
0.0486799
0.254766
0.457283
0.65629
0.851849
1.04406
1.233
1.41883
1.60171
1.78183
1.95939
2.13462
2.30775
2.47904
2.64875
2.81709
2.98433
3.15083
3.31687
3.48275
3.6488
3.81534
3.98273
4.15126
4.32117
4.49281
4.6666
4.84291
5.02208
5.20439
5.39016
5.57948
5.7724
5.96866
6.16923
6.36948
6.58633
6.75163
-8.76732
-8.7726
-8.7825
-8.79452
-8.80623
-8.81729
-8.82815
-8.83905
-8.84994
-8.86061
-8.87082
-8.88034
-8.88899
-8.89664
-8.90322
-8.90867
-8.91297
-8.91608
-8.91799
-8.91869
-8.91818
-8.91646
-8.91357
-8.90954
-8.90441
-8.8982
-8.89094
-8.88266
-8.87338
-8.86316
-8.8521
-8.84042
-8.8284
-8.81632
-8.80453
-8.79352
-8.78391
-8.77642
-8.77179
-8.77068
-8.77361
-8.78088
-8.79256
-8.80851
-8.82851
-8.85232
-8.87967
-8.91032
-8.94401
-8.98048
-9.01945
-9.06067
-9.10387
-9.14877
-9.1951
-9.24258
-9.29098
-9.34007
-9.38963
-9.43938
-9.48905
-9.53838
-9.58713
-9.63501
-9.68178
-9.72715
-9.77081
-9.81247
-9.85179
-9.88844
-9.9221
-9.95262
-9.97992
-10.0038
-10.024
-10.0403
-10.0527
-10.0614
-10.0663
-10.0675
-10.0646
-10.0574
-10.0456
-10.029
-10.0076
-9.98114
-9.9495
-9.91244
-9.86969
-9.82108
-9.76648
-9.70578
-9.63888
-9.56565
-9.48597
-9.3997
-9.30671
-9.20689
-9.10016
-8.98647
-8.86582
-8.73818
-8.60355
-8.46192
-8.31328
-8.15766
-7.99515
-7.82584
-7.64989
-7.46744
-7.27867
-7.08376
-6.88291
-6.67638
-6.4645
-6.24757
-6.02592
-5.79992
-5.56991
-5.3363
-5.09951
-4.85999
-4.61822
-4.37466
-4.1298
-3.88409
-3.63801
-3.39203
-3.14661
-2.90218
-2.65911
-2.41771
-2.17821
-1.94089
-1.70608
-1.47401
-1.24488
-1.01885
-0.796077
-0.576675
-0.360734
-0.148332
0.0604634
0.265611
0.46713
0.665074
0.859519
1.05056
1.23829
1.42285
1.60444
1.78323
1.95945
2.13333
2.30513
2.47513
2.64357
2.81063
2.97657
3.14174
3.30648
3.47108
3.63587
3.80122
3.9675
4.13499
4.30386
4.47442
4.64719
4.82257
5.00092
5.18255
5.3678
5.5567
5.74921
5.94514
6.14537
6.34569
6.56206
6.72711
-8.72614
-8.73228
-8.74429
-8.75854
-8.77163
-8.78359
-8.79551
-8.80769
-8.81991
-8.83194
-8.84354
-8.8544
-8.86424
-8.87296
-8.88053
-8.88696
-8.89225
-8.89636
-8.89923
-8.90084
-8.90114
-8.90013
-8.89779
-8.8941
-8.88906
-8.88266
-8.87491
-8.86584
-8.85553
-8.84412
-8.83178
-8.81873
-8.80524
-8.79172
-8.77871
-8.76683
-8.75677
-8.74927
-8.74496
-8.74438
-8.74783
-8.75548
-8.76734
-8.78332
-8.80328
-8.82703
-8.85437
-8.88506
-8.91886
-8.95553
-8.99482
-9.0365
-9.08033
-9.12604
-9.17334
-9.22196
-9.27163
-9.32204
-9.37288
-9.42387
-9.47473
-9.5252
-9.57503
-9.62393
-9.67164
-9.71784
-9.76224
-9.8045
-9.84426
-9.88109
-9.91461
-9.94485
-9.97199
-9.99598
-10.0163
-10.0325
-10.0445
-10.053
-10.0582
-10.0598
-10.0575
-10.0508
-10.0395
-10.0233
-10.0021
-9.97605
-9.9449
-9.90845
-9.86641
-9.81847
-9.76437
-9.70396
-9.63715
-9.56387
-9.48404
-9.39755
-9.30427
-9.20408
-9.09692
-8.98278
-8.86166
-8.73356
-8.59845
-8.45633
-8.30719
-8.15105
-7.988
-7.81817
-7.64168
-7.45868
-7.26931
-7.07374
-6.8722
-6.66497
-6.45234
-6.23466
-6.01226
-5.78551
-5.55474
-5.32038
-5.08285
-4.84262
-4.60016
-4.35597
-4.11051
-3.86426
-3.61771
-3.37132
-3.12558
-2.88094
-2.63776
-2.39635
-2.15694
-1.91986
-1.68541
-1.45379
-1.22518
-0.999748
-0.777643
-0.558983
-0.34388
-0.132407
0.0753868
0.279475
0.479884
0.676649
0.86985
1.05958
1.24597
1.42915
1.60931
1.78665
1.96138
2.13375
2.30402
2.47246
2.63934
2.80494
2.96952
3.13334
3.29672
3.45998
3.62346
3.78754
3.95265
4.11907
4.2869
4.45647
4.62832
4.80287
4.98047
5.16148
5.34627
5.5348
5.72693
5.9226
6.1225
6.32297
6.53886
6.70416
-8.68102
-8.68847
-8.7031
-8.71993
-8.73442
-8.74711
-8.75981
-8.77324
-8.78704
-8.80069
-8.81379
-8.82608
-8.83734
-8.84729
-8.85585
-8.86323
-8.86956
-8.87475
-8.87868
-8.88128
-8.88245
-8.88214
-8.88027
-8.8768
-8.87168
-8.86489
-8.85648
-8.84648
-8.83499
-8.82216
-8.8082
-8.79345
-8.77834
-8.76341
-8.74929
-8.73662
-8.7261
-8.71835
-8.71388
-8.71309
-8.71625
-8.7235
-8.73489
-8.75038
-8.76988
-8.79326
-8.82033
-8.85089
-8.88472
-8.92159
-8.96126
-9.00349
-9.04803
-9.09456
-9.1428
-9.19247
-9.24325
-9.2948
-9.34675
-9.39881
-9.4507
-9.50212
-9.55281
-9.60247
-9.65083
-9.6976
-9.74249
-9.78516
-9.82515
-9.86182
-9.89438
-9.92306
-9.94895
-9.97259
-9.99366
-10.0114
-10.0251
-10.0348
-10.0406
-10.0427
-10.0407
-10.0343