/*--------------------------------*- C++ -*----------------------------------*\
| =========                 |                                                 |
| \\      /  F ield         | OpenFOAM: The Open Source CFD Toolbox           |
|  \\    /   O peration     | Version:  4.x                                   |
|   \\  /    A nd           | Web:      www.OpenFOAM.org                      |
|    \\/     M anipulation  |                                                 |
\*---------------------------------------------------------------------------*/
FoamFile
{
    version     2.0;
    format      ascii;
    class       surfaceScalarField;
    location    "300";
    object      phi;
}
// * * * * * * * * * * * * * * * * * * * * * * * * * * * * * * * * * * * * * //

dimensions      [0 3 -1 0 0 0 0];

internalField   nonuniform List<scalar> 
24170
(
3.00033e-06
1.33566e-07
2.85653e-06
1.438e-07
2.72761e-06
1.28915e-07
2.61177e-06
1.15845e-07
2.50824e-06
1.03526e-07
2.4172e-06
9.10418e-08
2.33815e-06
7.90498e-08
2.26998e-06
6.8168e-08
2.21112e-06
5.88525e-08
2.15998e-06
5.11451e-08
2.11548e-06
4.44935e-08
2.07691e-06
3.85785e-08
2.04369e-06
3.32155e-08
2.01544e-06
2.8245e-08
1.992e-06
2.34474e-08
1.97367e-06
1.83234e-08
1.96142e-06
1.22542e-08
-3.43774e-11
1.96145e-06
3.51492e-06
7.50894e-08
3.54732e-06
1.11397e-07
3.56338e-06
1.12855e-07
3.56645e-06
1.12773e-07
3.55929e-06
1.10693e-07
3.54479e-06
1.05536e-07
3.52528e-06
9.85559e-08
3.50247e-06
9.09866e-08
3.47787e-06
8.34448e-08
3.45279e-06
7.62271e-08
3.42787e-06
6.94142e-08
3.40352e-06
6.29301e-08
3.38003e-06
5.67025e-08
3.35765e-06
5.06198e-08
3.33661e-06
4.44925e-08
3.31712e-06
3.78102e-08
3.29925e-06
3.01218e-08
1.93374e-08
3.27988e-06
3.8329e-06
5.43802e-08
3.85109e-06
9.3209e-08
3.86588e-06
9.80651e-08
3.87878e-06
9.98734e-08
3.88937e-06
1.00103e-07
3.89749e-06
9.74184e-08
3.90326e-06
9.27787e-08
3.9069e-06
8.73516e-08
3.90868e-06
8.16612e-08
3.90896e-06
7.59429e-08
3.90808e-06
7.03013e-08
3.90628e-06
6.47304e-08
3.90378e-06
5.91955e-08
3.90079e-06
5.36113e-08
3.89746e-06
4.78253e-08
3.89381e-06
4.14577e-08
3.88956e-06
3.43699e-08
2.57998e-08
3.8831e-06
4.21656e-06
4.23743e-08
4.22941e-06
8.03634e-08
4.23946e-06
8.80136e-08
4.24847e-06
9.0866e-08
4.25666e-06
9.19112e-08
4.26392e-06
9.01592e-08
4.27028e-06
8.64178e-08
4.27582e-06
8.18078e-08
4.28062e-06
7.68676e-08
4.28474e-06
7.18144e-08
4.28832e-06
6.6729e-08
4.29141e-06
6.16305e-08
4.29412e-06
5.6489e-08
4.29649e-06
5.12396e-08
4.29855e-06
4.57621e-08
4.30017e-06
3.9839e-08
4.3011e-06
3.34423e-08
2.64372e-08
4.30046e-06
4.64607e-06
3.36083e-08
4.65709e-06
6.93433e-08
4.66583e-06
7.92757e-08
4.6736e-06
8.30943e-08
4.6808e-06
8.47098e-08
4.68734e-06
8.36205e-08
4.69322e-06
8.05363e-08
4.69854e-06
7.64902e-08
4.70337e-06
7.20374e-08
4.70779e-06
6.73957e-08
4.71186e-06
6.26569e-08
4.71564e-06
5.78536e-08
4.71915e-06
5.29731e-08
4.72242e-06
4.79686e-08
4.72542e-06
4.27649e-08
4.728e-06
3.72576e-08
4.72996e-06
3.14799e-08
2.55438e-08
4.73086e-06
5.12141e-06
2.6796e-08
5.13128e-06
5.94708e-08
5.13955e-06
7.10092e-08
5.14701e-06
7.56253e-08
5.15402e-06
7.77027e-08
5.16045e-06
7.71953e-08
5.16627e-06
7.47073e-08
5.17159e-06
7.11696e-08
5.17649e-06
6.71416e-08
5.18103e-06
6.28507e-08
5.18528e-06
5.84084e-08
5.18927e-06
5.38611e-08
5.19303e-06
4.92195e-08
5.19654e-06
4.44589e-08
5.19975e-06
3.95489e-08
5.20255e-06
3.44583e-08
5.20477e-06
2.92608e-08
2.41296e-08
5.20618e-06
5.64635e-06
2.14552e-08
5.65524e-06
5.05798e-08
5.66324e-06
6.30128e-08
5.67062e-06
6.82449e-08
5.67765e-06
7.06698e-08
5.68418e-06
7.06621e-08
5.69017e-06
6.8721e-08
5.69567e-06
6.5667e-08
5.70076e-06
6.20471e-08
5.70551e-06
5.81007e-08
5.70997e-06
5.39542e-08
5.71416e-06
4.96709e-08
5.71809e-06
4.52846e-08
5.72175e-06
4.07966e-08
5.72509e-06
3.6212e-08
5.728e-06
3.15463e-08
5.73037e-06
2.68887e-08
2.23996e-08
5.7321e-06
4.40924e-06
1.83228e-08
4.41502e-06
4.48008e-08
4.42068e-06
5.73534e-08
4.42597e-06
6.29553e-08
4.43104e-06
6.55994e-08
4.43583e-06
6.5877e-08
4.44027e-06
6.42808e-08
4.44437e-06
6.15584e-08
4.44819e-06
5.82273e-08
4.45176e-06
5.45309e-08
4.45511e-06
5.06049e-08
4.45826e-06
4.65258e-08
4.4612e-06
4.23411e-08
4.46393e-06
3.807e-08
4.4664e-06
3.37373e-08
4.46857e-06
2.93798e-08
4.47037e-06
2.50869e-08
2.10006e-08
4.47177e-06
5.14272e-06
1.54569e-08
5.14845e-06
3.90702e-08
5.15438e-06
5.14287e-08
5.16006e-06
5.72687e-08
5.16559e-06
6.00756e-08
5.17085e-06
6.06119e-08
5.17578e-06
5.93517e-08
5.18038e-06
5.69639e-08
5.18467e-06
5.39346e-08
5.18869e-06
5.05101e-08
5.19246e-06
4.68319e-08
5.196e-06
4.29889e-08
5.1993e-06
3.90408e-08
5.20234e-06
3.50243e-08
5.2051e-06
3.0979e-08
5.20752e-06
2.69562e-08
5.20957e-06
2.30386e-08
1.9347e-08
5.21123e-06
5.99838e-06
1.28681e-08
6.00397e-06
3.34808e-08
6.01009e-06
4.53043e-08
6.01614e-06
5.12188e-08
6.02211e-06
5.41117e-08
6.02786e-06
5.48625e-08
6.03329e-06
5.39208e-08
6.03839e-06
5.18649e-08
6.04317e-06
4.91462e-08
6.04767e-06
4.6013e-08
6.05189e-06
4.26106e-08
6.05584e-06
3.90374e-08
6.05952e-06
3.53635e-08
6.0629e-06
3.16401e-08
6.06597e-06
2.79169e-08
6.06867e-06
2.42517e-08
6.07099e-06
2.07174e-08
1.74119e-08
6.07293e-06
6.99658e-06
1.05554e-08
7.00194e-06
2.81243e-08
7.00819e-06
3.905e-08
7.01456e-06
4.48466e-08
7.02094e-06
4.77365e-08
7.02716e-06
4.86375e-08
7.0331e-06
4.79804e-08
7.03872e-06
4.62483e-08
7.04401e-06
4.38477e-08
7.049e-06
4.10243e-08
7.05369e-06
3.79265e-08
7.05807e-06
3.46578e-08
7.06213e-06
3.12964e-08
7.06587e-06
2.7903e-08
7.06925e-06
2.45332e-08
7.07226e-06
2.12449e-08
7.07488e-06
1.8099e-08
1.5173e-08
7.07712e-06
8.16107e-06
8.4974e-09
8.16613e-06
2.3063e-08
8.17243e-06
3.27547e-08
8.17907e-06
3.82075e-08
8.18582e-06
4.0988e-08
8.19249e-06
4.19582e-08
8.19894e-06
4.15329e-08
8.20508e-06
4.01052e-08
8.21091e-06
3.80261e-08
8.2164e-06
3.553e-08
8.22156e-06
3.27649e-08
8.22638e-06
2.98359e-08
8.23085e-06
2.68244e-08
8.23496e-06
2.37959e-08
8.23869e-06
2.0807e-08
8.24202e-06
1.79116e-08
8.24496e-06
1.51589e-08
1.26088e-08
8.24752e-06
9.51957e-06
6.65715e-09
9.52431e-06
1.83209e-08
9.53056e-06
2.65071e-08
9.53739e-06
3.13695e-08
9.54447e-06
3.39112e-08
9.55157e-06
3.48571e-08
9.55851e-06
3.45929e-08
9.56518e-06
3.3435e-08
9.57154e-06
3.16719e-08
9.57755e-06
2.95155e-08
9.58321e-06
2.71076e-08
9.58849e-06
2.45499e-08
9.59339e-06
2.19225e-08
9.5979e-06
1.92897e-08
9.602e-06
1.67055e-08
9.6057e-06
1.42172e-08
9.60899e-06
1.18632e-08
9.68977e-09
9.61191e-06
1.11044e-05
4.99133e-09
1.11088e-05
1.38814e-08
1.11149e-05
2.03694e-08
1.11219e-05
2.43989e-08
1.11293e-05
2.65513e-08
1.11368e-05
2.73687e-08
1.11442e-05
2.7183e-08
1.11514e-05
2.6245e-08
1.11583e-05
2.478e-08
1.11648e-05
2.29668e-08
1.1171e-05
2.09328e-08
1.11768e-05
1.87711e-08
1.11821e-05
1.65548e-08
1.11871e-05
1.43427e-08
1.11916e-05
1.21825e-08
1.11957e-05
1.01135e-08
1.11994e-05
8.16505e-09
6.37289e-09
1.12027e-05
1.29532e-05
3.45401e-09
1.29574e-05
9.68779e-09
1.29634e-05
1.43525e-08
1.29704e-05
1.73344e-08
1.29781e-05
1.89358e-08
1.29859e-05
1.95123e-08
1.29938e-05
1.93171e-08
1.30015e-05
1.85384e-08
1.30089e-05
1.73417e-08
1.3016e-05
1.58648e-08
1.30227e-05
1.4212e-08
1.30291e-05
1.24618e-08
1.30349e-05
1.06755e-08
1.30404e-05
8.90191e-09
1.30454e-05
7.18018e-09
1.30499e-05
5.54112e-09
1.30541e-05
4.00601e-09
2.60212e-09
1.30579e-05
1.51099e-05
1.99433e-09
1.5114e-05
5.63867e-09
1.51199e-05
8.38942e-09
1.51271e-05
1.0146e-08
1.5135e-05
1.10397e-08
1.51433e-05
1.12617e-08
1.51516e-05
1.09702e-08
1.51599e-05
1.02884e-08
1.51679e-05
9.32356e-09
1.51756e-05
8.16827e-09
1.51829e-05
6.89652e-09
1.51898e-05
5.56565e-09
1.51962e-05
4.22096e-09
1.52022e-05
2.89853e-09
1.52078e-05
1.62672e-09
1.52129e-05
4.27401e-10
1.52176e-05
-6.85335e-10
-1.69125e-09
1.52219e-05
1.76259e-05
5.47593e-10
1.763e-05
1.56536e-09
1.76361e-05
2.29497e-09
1.76435e-05
2.67391e-09
1.76518e-05
2.72223e-09
1.76606e-05
2.4883e-09
1.76696e-05
2.02671e-09
1.76785e-05
1.38983e-09
1.76872e-05
6.26267e-10
1.76955e-05
-2.19759e-10
1.77036e-05
-1.11076e-09
1.77111e-05
-2.01516e-09
1.77183e-05
-2.90746e-09
1.77249e-05
-3.76657e-09
1.77311e-05
-4.57638e-09
1.77369e-05
-5.32409e-09
1.77422e-05
-6.00265e-09
-6.59803e-09
1.77471e-05
1.78276e-05
-8.10955e-10
1.78314e-05
-2.28251e-09
1.78372e-05
-3.48003e-09
1.78443e-05
-4.42803e-09
1.78522e-05
-5.20397e-09
1.78606e-05
-5.89204e-09
1.78691e-05
-6.5352e-09
1.78777e-05
-7.14835e-09
1.7886e-05
-7.73715e-09
1.78941e-05
-8.30435e-09
1.79019e-05
-8.84733e-09
1.79092e-05
-9.36086e-09
1.79161e-05
-9.83791e-09
1.79226e-05
-1.02727e-08
1.79287e-05
-1.06596e-08
1.79344e-05
-1.09946e-08
1.79397e-05
-1.12757e-08
-1.14947e-08
1.79446e-05
1.58826e-05
-2.07003e-09
1.58861e-05
-5.81994e-09
1.58914e-05
-8.72696e-09
1.58977e-05
-1.07958e-08
1.59048e-05
-1.22404e-08
1.59122e-05
-1.32855e-08
1.59197e-05
-1.40579e-08
1.59272e-05
-1.46264e-08
1.59345e-05
-1.50463e-08
1.59415e-05
-1.53607e-08
1.59483e-05
-1.55977e-08
1.59547e-05
-1.57721e-08
1.59608e-05
-1.58937e-08
1.59665e-05
-1.59677e-08
1.59718e-05
-1.59982e-08
1.59768e-05
-1.59863e-08
1.59814e-05
-1.5935e-08
-1.58387e-08
1.59858e-05
1.41499e-05
-3.34925e-09
1.41535e-05
-9.35621e-09
1.41586e-05
-1.38325e-08
1.41646e-05
-1.68203e-08
1.41711e-05
-1.87662e-08
1.41779e-05
-2.00585e-08
1.41847e-05
-2.08867e-08
1.41915e-05
-2.13646e-08
1.4198e-05
-2.15947e-08
1.42043e-05
-2.1658e-08
1.42103e-05
-2.16054e-08
1.4216e-05
-2.14685e-08
1.42214e-05
-2.12693e-08
1.42265e-05
-2.10233e-08
1.42312e-05
-2.07406e-08
1.42356e-05
-2.04276e-08
1.42398e-05
-2.00888e-08
-1.97216e-08
1.42437e-05
1.26064e-05
-4.75325e-09
1.26102e-05
-1.31329e-08
1.26154e-05
-1.90452e-08
1.26213e-05
-2.27186e-08
1.26275e-05
-2.49917e-08
1.26339e-05
-2.64201e-08
1.26402e-05
-2.72219e-08
1.26464e-05
-2.75507e-08
1.26524e-05
-2.75604e-08
1.26581e-05
-2.73634e-08
1.26635e-05
-2.70262e-08
1.26686e-05
-2.65926e-08
1.26735e-05
-2.60946e-08
1.2678e-05
-2.55559e-08
1.26822e-05
-2.49913e-08
1.26862e-05
-2.44102e-08
1.269e-05
-2.38184e-08
-2.32141e-08
1.26935e-05
1.12314e-05
-6.40073e-09
1.12357e-05
-1.73699e-08
1.12412e-05
-2.45208e-08
1.1247e-05
-2.85972e-08
1.12531e-05
-3.10273e-08
1.12591e-05
-3.24868e-08
1.12651e-05
-3.31761e-08
1.12708e-05
-3.3297e-08
1.12763e-05
-3.30571e-08
1.12816e-05
-3.25896e-08
1.12865e-05
-3.19691e-08
1.12912e-05
-3.12478e-08
1.12955e-05
-3.04669e-08
1.12996e-05
-2.96555e-08
1.13035e-05
-2.88331e-08
1.13071e-05
-2.801e-08
1.13104e-05
-2.71932e-08
-2.63794e-08
1.13136e-05
1.00067e-05
-8.44826e-09
1.00116e-05
-2.22812e-08
1.00174e-05
-3.0335e-08
1.00233e-05
-3.44928e-08
1.00292e-05
-3.69331e-08
1.0035e-05
-3.83247e-08
1.00407e-05
-3.88181e-08
1.00461e-05
-3.86823e-08
1.00512e-05
-3.81726e-08
1.0056e-05
-3.74293e-08
1.00606e-05
-3.65272e-08
1.00648e-05
-3.55257e-08
1.00688e-05
-3.44731e-08
1.00726e-05
-3.34046e-08
1.00761e-05
-3.2342e-08
1.00794e-05
-3.12978e-08
1.00825e-05
-3.02774e-08
-2.92763e-08
1.00854e-05
8.91576e-06
-1.11094e-08
8.92156e-06
-2.80802e-08
8.92771e-06
-3.64887e-08
8.93363e-06
-4.04151e-08
8.93946e-06
-4.27621e-08
8.94513e-06
-4.39943e-08
8.95053e-06
-4.42178e-08
8.95564e-06
-4.37913e-08
8.96047e-06
-4.30013e-08
8.96502e-06
-4.19792e-08
8.96929e-06
-4.07961e-08
8.97328e-06
-3.95177e-08
8.977e-06
-3.81992e-08
8.98048e-06
-3.68814e-08
8.98373e-06
-3.55894e-08
8.98677e-06
-3.43371e-08
8.98962e-06
-3.31298e-08
-3.19584e-08
8.9923e-06
7.94421e-06
-1.46561e-08
7.95113e-06
-3.49982e-08
7.95761e-06
-4.29672e-08
7.96361e-06
-4.64102e-08
7.96945e-06
-4.86108e-08
7.97506e-06
-4.96018e-08
7.98034e-06
-4.94939e-08
7.98529e-06
-4.87478e-08
7.98995e-06
-4.76625e-08
7.99433e-06
-4.63506e-08
7.99841e-06
-4.48773e-08
8.0022e-06
-4.33145e-08
8.00573e-06
-4.17245e-08
8.009e-06
-4.0154e-08
8.01204e-06
-3.86328e-08
8.01488e-06
-3.7177e-08
8.01754e-06
-3.57909e-08
-3.44527e-08
8.02004e-06
7.07915e-06
-1.94752e-08
7.08746e-06
-4.3313e-08
7.09444e-06
-4.99445e-08
7.10075e-06
-5.27218e-08
7.10685e-06
-5.47048e-08
7.11259e-06
-5.53486e-08
7.11794e-06
-5.48384e-08
7.12292e-06
-5.37316e-08
7.12758e-06
-5.23203e-08
7.13192e-06
-5.06885e-08
7.13593e-06
-4.88972e-08
7.13964e-06
-4.70237e-08
7.14306e-06
-4.51382e-08
7.1462e-06
-4.32935e-08
7.14909e-06
-4.15263e-08
7.15177e-06
-3.98563e-08
7.15427e-06
-3.82909e-08
-3.68017e-08
7.15662e-06
6.3097e-06
-2.6665e-08
6.31984e-06
-5.34506e-08
6.32802e-06
-5.81301e-08
6.33542e-06
-6.01158e-08
6.34236e-06
-6.16509e-08
6.34874e-06
-6.17215e-08
6.35456e-06
-6.06615e-08
6.35992e-06
-5.90904e-08
6.36486e-06
-5.72615e-08
6.36939e-06
-5.52215e-08
6.37352e-06
-5.30283e-08
6.37726e-06
-5.07633e-08
6.38063e-06
-4.85056e-08
6.38365e-06
-4.63143e-08
6.38636e-06
-4.42349e-08
6.3888e-06
-4.22993e-08
6.39102e-06
-4.05105e-08
-3.88122e-08
6.39303e-06
5.62887e-06
-4.06392e-08
5.64303e-06
-6.76095e-08
5.65484e-06
-6.99427e-08
5.66552e-06
-7.07971e-08
5.67505e-06
-7.11772e-08
5.68337e-06
-7.00385e-08
5.69061e-06
-6.79029e-08
5.69692e-06
-6.53981e-08
5.70236e-06
-6.27085e-08
5.70699e-06
-5.98462e-08
5.71083e-06
-5.68697e-08
5.71393e-06
-5.38673e-08
5.71635e-06
-5.09215e-08
5.71814e-06
-4.81062e-08
5.71938e-06
-4.54763e-08
5.72017e-06
-4.30938e-08
5.72063e-06
-4.09684e-08
-3.92252e-08
5.72104e-06
5.04691e-06
-8.52375e-08
5.07602e-06
-9.67242e-08
5.09651e-06
-9.04357e-08
5.11071e-06
-8.49951e-08
5.11967e-06
-8.01354e-08
5.12426e-06
-7.46285e-08
5.12529e-06
-6.89339e-08
5.12344e-06
-6.35511e-08
5.11923e-06
-5.85032e-08
5.11309e-06
-5.37074e-08
5.10539e-06
-4.91623e-08
5.09643e-06
-4.49093e-08
5.08649e-06
-4.09841e-08
5.07581e-06
-3.74254e-08
5.06468e-06
-3.43442e-08
5.05341e-06
-3.18289e-08
5.04226e-06
-2.98151e-08
-2.86299e-08
5.03166e-06
4.37131e-06
4.27459e-06
4.18415e-06
4.09916e-06
4.01902e-06
3.94439e-06
3.87546e-06
3.81191e-06
3.7534e-06
3.6997e-06
3.65053e-06
3.60562e-06
3.56464e-06
3.52722e-06
3.49287e-06
3.46104e-06
3.43123e-06
3.4026e-06
-1.0196e-08
1.01918e-08
-2.73508e-08
1.71458e-08
-4.64797e-08
1.91221e-08
-6.41625e-08
1.76746e-08
-7.52054e-08
1.10369e-08
-7.1942e-08
-3.2719e-09
-5.02059e-08
-2.17404e-08
-1.19064e-08
-3.83083e-08
3.84059e-08
-5.03151e-08
9.574e-08
-5.73412e-08
1.54744e-07
-5.90049e-08
2.11469e-07
-5.67308e-08
2.63365e-07
-5.18963e-08
3.08888e-07
-4.55277e-08
3.47254e-07
-3.83674e-08
3.78111e-07
-3.08623e-08
4.01347e-07
-2.32371e-08
4.16902e-07
-1.55609e-08
4.24678e-07
-7.77818e-09
4.24325e-07
3.46533e-10
4.15564e-07
8.75924e-09
3.98454e-07
1.71028e-08
3.7338e-07
2.50714e-08
3.40954e-07
3.24183e-08
3.0209e-07
3.88618e-08
2.5805e-07
4.40319e-08
2.10557e-07
4.74881e-08
1.61782e-07
4.87655e-08
1.14324e-07
4.74536e-08
7.09896e-08
4.33225e-08
3.44345e-08
3.65475e-08
6.39506e-09
2.80253e-08
-1.30177e-08
1.94026e-08
-2.52772e-08
1.22462e-08
-3.2351e-08
7.06299e-09
-3.6234e-08
3.87001e-09
-3.82313e-08
1.98503e-09
-3.81335e-08
-1.13309e-10
-3.35215e-08
-4.62318e-09
-2.16773e-08
-1.18625e-08
-9.96141e-10
-2.06926e-08
2.82839e-08
-2.92995e-08
6.26868e-08
-3.44127e-08
9.66139e-08
-3.39441e-08
1.25059e-07
-2.84535e-08
1.45001e-07
-1.99599e-08
1.55569e-07
-1.05798e-08
1.57852e-07
-2.30249e-09
1.55367e-07
2.47059e-09
1.51515e-07
3.82931e-09
1.49505e-07
1.99359e-09
1.57583e-07
-8.10409e-09
1.7309e-07
-1.5516e-08
1.73294e-07
-2.29884e-10
1.45258e-07
2.80388e-08
7.96841e-08
6.55486e-08
-3.08998e-08
1.106e-07
-1.81799e-07
1.50883e-07
-3.58442e-07
1.7666e-07
-5.50183e-07
1.91731e-07
-7.47803e-07
1.97633e-07
-9.43469e-07
1.95658e-07
-1.13088e-06
1.87417e-07
-1.30583e-06
1.74946e-07
-1.46602e-06
1.60197e-07
-1.61067e-06
1.44645e-07
-1.74006e-06
1.29392e-07
-1.85518e-06
1.15113e-07
-1.95738e-06
1.02205e-07
-2.04821e-06
9.08195e-08
-2.12916e-06
8.09582e-08
-2.20168e-06
7.25121e-08
-2.267e-06
6.53271e-08
-2.32623e-06
5.92203e-08
-2.38024e-06
5.40175e-08
-2.42981e-06
4.95565e-08
-2.4755e-06
4.56978e-08
-2.51782e-06
4.23237e-08
-2.55715e-06
3.9339e-08
-2.59381e-06
3.66615e-08
-2.62803e-06
3.42282e-08
-2.66e-06
3.19778e-08
-2.68985e-06
2.98719e-08
-2.71772e-06
2.78714e-08
-2.74365e-06
2.59521e-08
-2.76773e-06
2.40885e-08
-2.78998e-06
2.22655e-08
-2.81043e-06
2.04648e-08
-2.82908e-06
1.86741e-08
-2.84593e-06
1.68799e-08
-2.86097e-06
1.50674e-08
-2.87418e-06
1.32243e-08
-2.88551e-06
1.13383e-08
-2.89489e-06
9.39278e-09
-2.90226e-06
7.37052e-09
-2.90751e-06
5.26281e-09
-2.9106e-06
3.08745e-09
-2.91151e-06
9.21342e-10
-2.91048e-06
-1.02544e-09
-2.90772e-06
-2.73783e-09
-2.90333e-06
-4.37868e-09
-2.89731e-06
-5.99942e-09
-2.88966e-06
-7.61964e-09
-2.88039e-06
-9.24318e-09
-2.86949e-06
-1.08688e-08
-2.85697e-06
-1.24937e-08
-2.84281e-06
-1.41153e-08
-2.82704e-06
-1.57285e-08
-2.80967e-06
-1.73312e-08
-2.79071e-06
-1.89171e-08
-2.77017e-06
-2.04861e-08
-2.74809e-06
-2.20301e-08
-2.72449e-06
-2.35505e-08
-2.69939e-06
-2.50371e-08
-2.67285e-06
-2.64927e-08
-2.64488e-06
-2.79045e-08
-2.61555e-06
-2.92765e-08
-2.58489e-06
-3.05923e-08
-2.55298e-06
-3.1856e-08
-2.51987e-06
-3.30477e-08
-2.48564e-06
-3.4174e-08
-2.45032e-06
-3.52652e-08
-2.41398e-06
-3.62966e-08
-2.37671e-06
-3.72222e-08
-2.33863e-06
-3.80548e-08
-2.29979e-06
-3.87993e-08
-2.26034e-06
-3.9451e-08
-2.22022e-06
-4.00987e-08
-2.17948e-06
-4.07628e-08
-2.13823e-06
-4.12602e-08
-2.0966e-06
-4.16852e-08
-2.05463e-06
-4.20211e-08
-2.01239e-06
-4.2284e-08
-1.96997e-06
-4.24523e-08
-1.92746e-06
-4.25445e-08
-1.88494e-06
-4.2559e-08
-1.8425e-06
-4.25112e-08
-1.80019e-06
-4.23963e-08
-1.75806e-06
-4.22223e-08
-1.71618e-06
-4.19792e-08
-1.67459e-06
-4.16912e-08
-1.63335e-06
-4.1353e-08
-1.59253e-06
-4.09603e-08
-1.55216e-06
-4.05199e-08
-1.51229e-06
-4.00308e-08
-1.47294e-06
-3.94965e-08
-1.43413e-06
-3.89217e-08
-1.39587e-06
-3.83184e-08
-1.3582e-06
-3.77096e-08
-1.3211e-06
-3.70954e-08
-1.28462e-06
-3.64661e-08
-1.24873e-06
-3.58475e-08
-1.21344e-06
-3.52407e-08
-1.17872e-06
-3.46514e-08
-1.14454e-06
-3.40876e-08
-1.11089e-06
-3.3559e-08
-1.07773e-06
-3.30588e-08
-1.04502e-06
-3.2588e-08
-1.01273e-06
-3.2169e-08
-9.80778e-07
-3.18155e-08
-9.49099e-07
-3.15318e-08
-9.17578e-07
-3.13672e-08
-8.86121e-07
-3.12916e-08
-8.54643e-07
-3.13069e-08
-8.23035e-07
-3.14268e-08
-7.91201e-07
-3.16484e-08
-7.59029e-07
-3.1975e-08
-7.26416e-07
-3.24108e-08
-6.93252e-07
-3.29503e-08
-6.59422e-07
-3.3611e-08
-6.24799e-07
-3.43907e-08
-5.89259e-07
-3.53004e-08
-5.52741e-07
-3.62665e-08
-5.15204e-07
-3.72806e-08
-4.76676e-07
-3.82628e-08
-4.37309e-07
-3.91019e-08
-3.97471e-07
-3.95723e-08
-3.58175e-07
-3.9049e-08
-3.1419e-07
-4.37612e-08
-4.49011e-08
-2.69118e-07
-4.01464e-09
1.41987e-08
-1.18498e-08
2.49643e-08
-1.73823e-08
2.46414e-08
-1.36037e-08
1.38781e-08
6.68441e-09
-9.26304e-09
4.35839e-08
-4.01822e-08
9.3618e-08
-7.17783e-08
1.51372e-07
-9.60669e-08
2.109e-07
-1.09845e-07
2.67448e-07
-1.13893e-07
3.18869e-07
-1.10427e-07
3.64169e-07
-1.02033e-07
4.03129e-07
-9.0858e-08
4.35939e-07
-7.834e-08
4.62943e-07
-6.53724e-08
4.8453e-07
-5.24527e-08
5.01099e-07
-3.98082e-08
5.13059e-07
-2.75241e-08
5.20877e-07
-1.55983e-08
5.25201e-07
-3.98102e-09
5.26461e-07
7.4972e-09
5.24479e-07
1.90807e-08
5.18698e-07
3.08498e-08
5.08389e-07
4.27231e-08
4.9278e-07
5.44676e-08
4.71143e-07
6.5664e-08
4.42948e-07
7.568e-08
4.08014e-07
8.36948e-08
3.66667e-07
8.87967e-08
3.19815e-07
9.0168e-08
2.69033e-07
8.73246e-08
2.16684e-07
8.03654e-08
1.66053e-07
7.00269e-08
1.20972e-07
5.73133e-08
8.47997e-08
4.32246e-08
5.9941e-08
2.87078e-08
4.76655e-08
1.42439e-08
4.83037e-08
-7.77572e-10
6.00624e-08
-1.63962e-08
8.11171e-08
-3.29355e-08
1.09462e-07
-4.90477e-08
1.405e-07
-6.03522e-08
1.68647e-07
-6.25679e-08
1.89776e-07
-5.50862e-08
2.01695e-07
-4.03817e-08
2.04647e-07
-2.29274e-08
1.99704e-07
-5.64991e-09
1.88635e-07
8.74762e-09
1.76204e-07
1.48861e-08
1.5899e-07
2.10184e-08
1.19696e-07
4.12729e-08
3.69154e-08
7.46501e-08
-1.04233e-07
1.25622e-07
-2.90328e-07
1.85854e-07
-5.01536e-07
2.39245e-07
-7.21836e-07
2.85845e-07
-9.37328e-07
3.26092e-07
-1.1413e-06
3.54854e-07
-1.33213e-06
3.67493e-07
-1.50577e-06
3.6537e-07
-1.65952e-06
3.51376e-07
-1.79272e-06
3.28856e-07
-1.90644e-06
3.01141e-07
-2.00278e-06
2.71289e-07
-2.0843e-06
2.41717e-07
-2.15368e-06
2.14022e-07
-2.21336e-06
1.8907e-07
-2.26544e-06
1.6719e-07
-2.31159e-06
1.48357e-07
-2.35311e-06
1.32334e-07
-2.39093e-06
1.18784e-07
-2.42576e-06
1.07337e-07
-2.45807e-06
9.76377e-08
-2.48822e-06
8.93626e-08
-2.51644e-06
8.22384e-08
-2.54292e-06
7.60374e-08
-2.56779e-06
7.05681e-08
-2.59114e-06
6.56788e-08
-2.61305e-06
6.12462e-08
-2.63355e-06
5.71667e-08
-2.65267e-06
5.336e-08
-2.67045e-06
4.97611e-08
-2.68688e-06
4.63213e-08
-2.702e-06
4.29985e-08
-2.7158e-06
3.97618e-08
-2.72829e-06
3.65844e-08
-2.73946e-06
3.34474e-08
-2.74931e-06
3.03331e-08
-2.75785e-06
2.72286e-08
-2.76507e-06
2.41204e-08
-2.77098e-06
2.0998e-08
-2.7756e-06
1.78543e-08
-2.77894e-06
1.4686e-08
-2.78104e-06
1.1496e-08
-2.78196e-06
8.29561e-09
-2.7818e-06
5.106e-09
-2.78066e-06
1.94744e-09
-2.77856e-06
-1.16915e-09
-2.7753e-06
-4.28047e-09
-2.7706e-06
-7.42153e-09
-2.76439e-06
-1.05809e-08
-2.75662e-06
-1.37524e-08
-2.74728e-06
-1.69358e-08
-2.73638e-06
-2.01288e-08
-2.7239e-06
-2.33259e-08
-2.70984e-06
-2.65215e-08
-2.69422e-06
-2.97079e-08
-2.67704e-06
-3.28782e-08
-2.65831e-06
-3.60246e-08
-2.63806e-06
-3.91398e-08
-2.61629e-06
-4.22163e-08
-2.59304e-06
-4.52461e-08
-2.56832e-06
-4.82215e-08
-2.54219e-06
-5.1134e-08
-2.51466e-06
-5.3976e-08
-2.48578e-06
-5.6738e-08
-2.4556e-06
-5.9412e-08
-2.42417e-06
-6.19867e-08
-2.39152e-06
-6.44542e-08
-2.35772e-06
-6.68034e-08
-2.32282e-06
-6.90325e-08
-2.28691e-06
-7.11444e-08
-2.25005e-06
-7.31208e-08
-2.2123e-06
-7.49416e-08
-2.17372e-06
-7.66085e-08
-2.13438e-06
-7.81218e-08
-2.09433e-06
-7.94898e-08
-2.05368e-06
-8.07416e-08
-2.01258e-06
-8.18719e-08
-1.97104e-06
-8.28163e-08
-1.92916e-06
-8.35942e-08
-1.88701e-06
-8.42132e-08
-1.84465e-06
-8.46773e-08
-1.80214e-06
-8.49753e-08
-1.75958e-06
-8.51252e-08
-1.71703e-06
-8.51355e-08
-1.67457e-06
-8.5015e-08
-1.63225e-06
-8.477e-08
-1.59013e-06
-8.44076e-08
-1.54825e-06
-8.39193e-08
-1.50667e-06
-8.33356e-08
-1.46544e-06
-8.26544e-08
-1.42461e-06
-8.18762e-08
-1.38422e-06
-8.10096e-08
-1.34429e-06
-8.00604e-08
-1.30483e-06
-7.90335e-08
-1.26587e-06
-7.79431e-08
-1.22742e-06
-7.67964e-08
-1.1895e-06
-7.56415e-08
-1.15211e-06
-7.44781e-08
-1.11524e-06
-7.33166e-08
-1.07888e-06
-7.21682e-08
-1.04303e-06
-7.10571e-08
-1.00764e-06
-6.9984e-08
-9.72693e-07
-6.89705e-08
-9.3817e-07
-6.80068e-08
-9.04036e-07
-6.71176e-08
-8.70225e-07
-6.6308e-08
-8.36688e-07
-6.56155e-08
-8.0335e-07
-6.50476e-08
-7.70134e-07
-6.46417e-08
-7.36969e-07
-6.44124e-08
-7.03773e-07
-6.43684e-08
-6.70436e-07
-6.4511e-08
-6.36853e-07
-6.48784e-08
-6.02902e-07
-6.54547e-08
-5.68479e-07
-6.6255e-08
-5.33453e-07
-6.72801e-08
-4.97709e-07
-6.85392e-08
-4.6111e-07
-7.00404e-08
-4.23529e-07
-7.18037e-08
-3.84867e-07
-7.378e-08
-3.44992e-07
-7.59603e-08
-3.03816e-07
-7.82641e-08
-2.61315e-07
-8.05755e-08
-2.1753e-07
-8.26922e-08
-1.72397e-07
-8.45199e-08
-1.25873e-07
-8.53951e-08
-7.96194e-08
-8.98612e-08
-9.01812e-08
-3.42227e-08
1.39671e-09
1.27945e-08
4.76529e-09
2.15794e-08
1.64855e-08
1.29087e-08
4.65299e-08
-1.61769e-08
9.68938e-08
-5.96317e-08
1.60165e-07
-1.03457e-07
2.24479e-07
-1.36095e-07
2.82e-07
-1.53591e-07
3.29781e-07
-1.57627e-07
3.67953e-07
-1.52067e-07
3.98151e-07
-1.40625e-07
4.22171e-07
-1.26056e-07
4.41426e-07
-1.10113e-07
4.5688e-07
-9.37962e-08
4.69157e-07
-7.76493e-08
4.78645e-07
-6.19431e-08
4.85618e-07
-4.67824e-08
4.90279e-07
-3.21867e-08
4.92816e-07
-1.81366e-08
4.93426e-07
-4.59332e-09
4.92417e-07
8.50471e-09
4.90199e-07
2.1297e-08
4.87112e-07
3.39353e-08
4.83309e-07
4.65233e-08
4.78689e-07
5.90853e-08
4.72826e-07
7.15237e-08
4.64944e-07
8.35601e-08
4.53936e-07
9.46996e-08
4.38529e-07
1.04201e-07
4.17573e-07
1.1112e-07
3.90461e-07
1.14433e-07
3.57591e-07
1.13231e-07
3.20672e-07
1.06941e-07
2.82564e-07
9.54156e-08
2.46777e-07
7.90057e-08
2.16919e-07
5.8558e-08
1.95998e-07
3.51565e-08
1.85365e-07
9.84611e-09
1.84879e-07
-1.59177e-08
1.92608e-07
-4.06738e-08
2.03441e-07
-5.98866e-08
2.09844e-07
-6.67639e-08
2.07191e-07
-5.99207e-08
1.9465e-07
-4.25541e-08
1.72743e-07
-1.84821e-08
1.43325e-07
6.47869e-09
1.05256e-07
3.24095e-08
4.84575e-08
6.55308e-08
-4.27278e-08
1.0606e-07
-1.78913e-07
1.57194e-07
-3.56284e-07
2.18637e-07
-5.63786e-07
2.82147e-07
-7.80955e-07
3.42789e-07
-9.90741e-07
3.95637e-07
-1.18711e-06
4.3561e-07
-1.36317e-06
4.61904e-07
-1.51197e-06
4.74888e-07
-1.63171e-06
4.74594e-07
-1.72622e-06
4.6201e-07
-1.80034e-06
4.39486e-07
-1.85901e-06
4.10041e-07
-1.90689e-06
3.76732e-07
-1.94789e-06
3.42147e-07
-1.98492e-06
3.08314e-07
-2.0198e-06
2.76599e-07
-2.05356e-06
2.47781e-07
-2.08666e-06
2.22165e-07
-2.11921e-06
1.99744e-07
-2.15117e-06
1.8031e-07
-2.18239e-06
1.63551e-07
-2.21272e-06
1.4912e-07
-2.24206e-06
1.36668e-07
-2.27029e-06
1.25868e-07
-2.29735e-06
1.16425e-07
-2.32321e-06
1.08097e-07
-2.34784e-06
1.00671e-07
-2.37125e-06
9.39705e-08
-2.39342e-06
8.78521e-08
-2.41436e-06
8.2194e-08
-2.43409e-06
7.68966e-08
-2.4526e-06
7.18784e-08
-2.46991e-06
6.70732e-08
-2.48601e-06
6.24295e-08
-2.50091e-06
5.79035e-08
-2.5146e-06
5.34616e-08
-2.52708e-06
4.90765e-08
-2.53835e-06
4.47273e-08
-2.54841e-06
4.03971e-08
-2.55724e-06
3.60725e-08
-2.56485e-06
3.17426e-08
-2.57123e-06
2.73979e-08
-2.57641e-06
2.30327e-08
-2.58036e-06
1.86454e-08
-2.5831e-06
1.42382e-08
-2.58462e-06
9.81675e-09
-2.5849e-06
5.38746e-09
-2.5839e-06
9.47923e-10
-2.58155e-06
-3.51573e-09
-2.57779e-06
-8.03367e-09
-2.57259e-06
-1.26147e-08
-2.56592e-06
-1.72434e-08
-2.55775e-06
-2.19069e-08
-2.54808e-06
-2.6597e-08
-2.53689e-06
-3.13045e-08
-2.52418e-06
-3.60202e-08
-2.50994e-06
-4.07338e-08
-2.4942e-06
-4.5434e-08
-2.47694e-06
-5.01101e-08
-2.45819e-06
-5.47498e-08
-2.43797e-06
-5.93428e-08
-2.41628e-06
-6.38763e-08
-2.39316e-06
-6.83402e-08
-2.36863e-06
-7.27211e-08
-2.34273e-06
-7.70087e-08
-2.31548e-06
-8.11891e-08
-2.28694e-06
-8.52516e-08
-2.25714e-06
-8.91811e-08
-2.22613e-06
-9.29663e-08
-2.19396e-06
-9.65916e-08
-2.16069e-06
-1.00047e-07
-2.12637e-06
-1.03321e-07
-2.09108e-06
-1.06408e-07
-2.05489e-06
-1.0929e-07
-2.01785e-06
-1.11955e-07
-1.98005e-06
-1.14397e-07
-1.94154e-06
-1.16616e-07
-1.90241e-06
-1.18615e-07
-1.86275e-06
-1.20405e-07
-1.82264e-06
-1.21979e-07
-1.78217e-06
-1.23309e-07
-1.74139e-06
-1.24394e-07
-1.70038e-06
-1.25251e-07
-1.65919e-06
-1.25881e-07
-1.6179e-06
-1.26283e-07
-1.57657e-06
-1.26469e-07
-1.53527e-06
-1.26455e-07
-1.49407e-06
-1.26246e-07
-1.45302e-06
-1.25858e-07
-1.41217e-06
-1.25297e-07
-1.37157e-06
-1.24563e-07
-1.33127e-06
-1.23682e-07
-1.29132e-06
-1.22662e-07
-1.25175e-06
-1.21509e-07
-1.21259e-06
-1.20237e-07
-1.17386e-06
-1.18854e-07
-1.13558e-06
-1.17371e-07
-1.09776e-06
-1.15806e-07
-1.06041e-06
-1.14177e-07
-1.02353e-06
-1.12529e-07
-9.87139e-07
-1.1088e-07
-9.51209e-07
-1.09245e-07
-9.15734e-07
-1.07639e-07
-8.8069e-07
-1.06089e-07
-8.46046e-07
-1.04614e-07
-8.11771e-07
-1.03225e-07
-7.77836e-07
-1.01923e-07
-7.44191e-07
-1.00737e-07
-7.10777e-07
-9.96988e-08
-6.77537e-07
-9.88272e-08
-6.44406e-07
-9.81516e-08
-6.11305e-07
-9.77097e-08
-5.78165e-07
-9.75229e-08
-5.44893e-07
-9.7606e-08
-5.11386e-07
-9.7987e-08
-4.77533e-07
-9.8696e-08
-4.43217e-07
-9.9739e-08
-4.08314e-07
-1.01121e-07
-3.72702e-07
-1.02859e-07
-3.36246e-07
-1.04958e-07
-2.98811e-07
-1.07441e-07
-2.60259e-07
-1.10317e-07
-2.20463e-07
-1.1354e-07
-1.79283e-07
-1.17099e-07
-1.36602e-07
-1.20907e-07
-9.23296e-08
-1.24806e-07
-4.64246e-08
-1.28558e-07
1.09791e-09
-1.32001e-07
5.0392e-08
-1.34654e-07
9.98143e-08
-1.39255e-07
-1.40153e-07
1.498e-07
-5.93609e-10
1.33811e-08
9.1781e-09
1.17933e-08
4.47371e-08
-2.26581e-08
1.08194e-07
-7.96398e-08
1.83278e-07
-1.34718e-07
2.52139e-07
-1.72321e-07
3.0564e-07
-1.89596e-07
3.43025e-07
-1.90978e-07
3.67785e-07
-1.82388e-07
3.84165e-07
-1.68448e-07
3.95519e-07
-1.5198e-07
4.0396e-07
-1.34498e-07
4.10613e-07
-1.16767e-07
4.15987e-07
-9.91709e-08
4.20252e-07
-8.19145e-08
4.23418e-07
-6.511e-08
4.25455e-07
-4.88199e-08
4.26341e-07
-3.30733e-08
4.26084e-07
-1.78801e-08
4.24726e-07
-3.23673e-09
4.22364e-07
1.08667e-08
4.19179e-07
2.44807e-08
4.15449e-07
3.76646e-08
4.11493e-07
5.04766e-08
4.07617e-07
6.29608e-08
4.04024e-07
7.51145e-08
4.00742e-07
8.68412e-08
3.97503e-07
9.79354e-08
3.93676e-07
1.08026e-07
3.88281e-07
1.16513e-07
3.80187e-07
1.22524e-07
3.68445e-07
1.24969e-07
3.52671e-07
1.22712e-07
3.3331e-07
1.14773e-07
3.11757e-07
1.00555e-07
2.90117e-07
8.01921e-08
2.70757e-07
5.45114e-08
2.55436e-07
2.51595e-08
2.44037e-07
-4.5234e-09
2.3225e-07
-2.88937e-08
2.13463e-07
-4.11047e-08
1.83507e-07
-3.68145e-08
1.417e-07
-1.81184e-08
8.81452e-08
1.09929e-08
1.9641e-08
5.00161e-08
-7.19349e-08
9.80467e-08
-1.9321e-07
1.53679e-07
-3.4459e-07
2.16906e-07
-5.23435e-07
2.84902e-07
-7.19357e-07
3.53113e-07
-9.17131e-07
4.1641e-07
-1.10494e-06
4.69957e-07
-1.27238e-06
5.10229e-07
-1.41268e-06
5.35926e-07
-1.52485e-06
5.47782e-07
-1.6104e-06
5.47453e-07
-1.67209e-06
5.36578e-07
-1.71474e-06
5.17245e-07
-1.74411e-06
4.91378e-07
-1.76567e-06
4.6104e-07
-1.7838e-06
4.28172e-07
-1.80156e-06
3.94487e-07
-1.82074e-06
3.61333e-07
-1.84215e-06
3.29719e-07
-1.86586e-06
3.00308e-07
-1.89154e-06
2.73462e-07
-1.91868e-06
2.49305e-07
-1.94673e-06
2.27789e-07
-1.97517e-06
2.08755e-07
-2.00359e-06
1.91968e-07
-2.03164e-06
1.77171e-07
-2.05907e-06
1.64098e-07
-2.0857e-06
1.52491e-07
-2.11139e-06
1.42117e-07
-2.13607e-06
1.32773e-07
-2.15967e-06
1.24277e-07
-2.18217e-06
1.16473e-07
-2.20355e-06
1.09233e-07
-2.2238e-06
1.02444e-07
-2.24291e-06
9.60121e-08
-2.26089e-06
8.98578e-08
-2.27773e-06
8.39154e-08
-2.29342e-06
7.8131e-08
-2.30797e-06
7.24599e-08
-2.32137e-06
6.68664e-08
-2.33361e-06
6.1322e-08
-2.34468e-06
5.58047e-08
-2.35458e-06
5.02973e-08
-2.36328e-06
4.47869e-08
-2.37079e-06
3.92622e-08
-2.3771e-06
3.37148e-08
-2.3822e-06
2.8138e-08
-2.38608e-06
2.25276e-08
-2.38872e-06
1.68816e-08
-2.3901e-06
1.11984e-08
-2.39019e-06
5.47465e-09
-2.38894e-06
-2.98684e-10
-2.38632e-06
-6.13506e-09
-2.3823e-06
-1.20484e-08
-2.37687e-06
-1.80384e-08
-2.37001e-06
-2.40932e-08
-2.36171e-06
-3.01992e-08
-2.35195e-06
-3.6344e-08
-2.34073e-06
-4.25144e-08
-2.32804e-06
-4.86973e-08
-2.31388e-06
-5.48783e-08
-2.29826e-06
-6.10425e-08
-2.28117e-06
-6.71749e-08
-2.26265e-06
-7.32594e-08
-2.24269e-06
-7.92814e-08