/*--------------------------------*- C++ -*----------------------------------*\
| =========                 |                                                 |
| \\      /  F ield         | OpenFOAM: The Open Source CFD Toolbox           |
|  \\    /   O peration     | Version:  4.x                                   |
|   \\  /    A nd           | Web:      www.OpenFOAM.org                      |
|    \\/     M anipulation  |                                                 |
\*---------------------------------------------------------------------------*/
FoamFile
{
    version     2.0;
    format      ascii;
    class       volVectorField;
    location    "300";
    object      U;
}
// * * * * * * * * * * * * * * * * * * * * * * * * * * * * * * * * * * * * * //

dimensions      [0 1 -1 0 0 0 0];

internalField   nonuniform List<vector> 
12225
(
(9.76896 0.0436023 0)
(9.3333 0.0791889 0)
(8.91185 0.0854735 0)
(8.5154 0.0822253 0)
(8.16088 0.0754412 0)
(7.85066 0.0670329 0)
(7.58043 0.0581431 0)
(7.34633 0.0494854 0)
(7.14479 0.041747 0)
(6.97009 0.0352852 0)
(6.8177 0.0298551 0)
(6.68571 0.0251842 0)
(6.57123 0.0210022 0)
(6.47345 0.0171771 0)
(6.3908 0.0134617 0)
(6.32344 0.00940318 0)
(6.27406 0.00513127 0)
(6.23811 -0.00643323 0)
(10.0813 0.0582006 0)
(10.2249 0.0920183 0)
(10.3018 0.091615 0)
(10.324 0.0883293 0)
(10.3136 0.0857209 0)
(10.2808 0.0823803 0)
(10.231 0.0782683 0)
(10.1688 0.0738713 0)
(10.0991 0.0694466 0)
(10.0265 0.0651735 0)
(9.9539 0.0611617 0)
(9.88224 0.0572153 0)
(9.81299 0.053231 0)
(9.74631 0.0490551 0)
(9.68349 0.0445121 0)
(9.62426 0.0390415 0)
(9.57052 0.0318216 0)
(9.51633 0.019517 0)
(10.0177 0.0424341 0)
(10.0769 0.065163 0)
(10.1249 0.0680919 0)
(10.1603 0.0721785 0)
(10.1894 0.0762429 0)
(10.2141 0.077967 0)
(10.2327 0.0776537 0)
(10.2451 0.0762144 0)
(10.2518 0.074181 0)
(10.2544 0.0718252 0)
(10.2534 0.0691436 0)
(10.2498 0.0661484 0)
(10.244 0.0628255 0)
(10.2367 0.059106 0)
(10.2283 0.0547958 0)
(10.219 0.0493177 0)
(10.2089 0.0421956 0)
(10.1951 0.0310227 0)
(10.0079 0.0305855 0)
(10.0422 0.0552154 0)
(10.0728 0.0623725 0)
(10.0952 0.0674149 0)
(10.1144 0.071017 0)
(10.1326 0.072301 0)
(10.1491 0.0719167 0)
(10.1633 0.0707188 0)
(10.1755 0.0690889 0)
(10.1861 0.0671481 0)
(10.1952 0.0649246 0)
(10.2031 0.0624307 0)
(10.2099 0.0596149 0)
(10.216 0.0563727 0)
(10.2212 0.0524977 0)
(10.2256 0.0475794 0)
(10.2288 0.0413547 0)
(10.2296 0.0332607 0)
(10.0047 0.0236894 0)
(10.0288 0.0486662 0)
(10.0531 0.0572452 0)
(10.071 0.0620797 0)
(10.0862 0.0655102 0)
(10.1008 0.0670496 0)
(10.1144 0.0670842 0)
(10.1265 0.0662719 0)
(10.1374 0.064965 0)
(10.1473 0.0632912 0)
(10.1565 0.0613049 0)
(10.1649 0.0590032 0)
(10.1728 0.0563366 0)
(10.1801 0.0532078 0)
(10.1868 0.0494656 0)
(10.1929 0.0448697 0)
(10.1979 0.0393455 0)
(10.2013 0.0329141 0)
(10.0031 0.0188594 0)
(10.0209 0.0420677 0)
(10.0412 0.0514183 0)
(10.0569 0.0565801 0)
(10.0704 0.0602774 0)
(10.0833 0.0621824 0)
(10.0955 0.0625507 0)
(10.1064 0.0619845 0)
(10.1164 0.060863 0)
(10.1255 0.0593305 0)
(10.1341 0.0574475 0)
(10.1422 0.055217 0)
(10.1497 0.0526102 0)
(10.1568 0.0495547 0)
(10.1634 0.0459557 0)
(10.1694 0.04169 0)
(10.1743 0.0367748 0)
(10.178 0.0313711 0)
(10.0021 0.0151534 0)
(10.0154 0.0359229 0)
(10.0323 0.0457235 0)
(10.0465 0.0512235 0)
(10.0589 0.0550695 0)
(10.0707 0.0571956 0)
(10.0819 0.0578143 0)
(10.0922 0.0574623 0)
(10.1015 0.0565121 0)
(10.1102 0.0551117 0)
(10.1183 0.0533283 0)
(10.126 0.0511783 0)
(10.1332 0.0486536 0)
(10.1399 0.0457095 0)
(10.1462 0.0422982 0)
(10.1518 0.0383753 0)
(10.1565 0.0340052 0)
(10.1602 0.02938 0)
(10.0015 0.012541 0)
(10.0121 0.0312236 0)
(10.0264 0.0411296 0)
(10.0394 0.046766 0)
(10.0509 0.0506152 0)
(10.062 0.0528393 0)
(10.0725 0.0536241 0)
(10.0823 0.0534379 0)
(10.0913 0.0526256 0)
(10.0996 0.0513348 0)
(10.1075 0.049639 0)
(10.1148 0.0475678 0)
(10.1217 0.0451296 0)
(10.1282 0.0423043 0)
(10.1341 0.0390776 0)
(10.1394 0.0354501 0)
(10.1439 0.0315036 0)
(10.1476 0.0274146 0)
(10.0012 0.0105919 0)
(10.0097 0.0274048 0)
(10.0221 0.0371473 0)
(10.034 0.0428303 0)
(10.0448 0.0466566 0)
(10.0552 0.0489286 0)
(10.0651 0.0498271 0)
(10.0744 0.0497652 0)
(10.0831 0.0490605 0)
(10.0911 0.0478612 0)
(10.0987 0.0462445 0)
(10.1058 0.0442512 0)
(10.1125 0.0419022 0)
(10.1187 0.0391978 0)
(10.1243 0.0361463 0)
(10.1294 0.0327754 0)
(10.1338 0.0291705 0)
(10.1374 0.0254896 0)
(10.0009 0.00887647 0)
(10.0077 0.023678 0)
(10.0182 0.0329907 0)
(10.0289 0.0386147 0)
(10.039 0.0423647 0)
(10.0487 0.0446435 0)
(10.058 0.0456303 0)
(10.0668 0.0456755 0)
(10.0751 0.0450701 0)
(10.0828 0.0439631 0)
(10.0901 0.0424345 0)
(10.0969 0.0405345 0)
(10.1033 0.0382953 0)
(10.1092 0.0357363 0)
(10.1146 0.0328835 0)
(10.1194 0.029782 0)
(10.1236 0.0265139 0)
(10.1272 0.0232156 0)
(10.0007 0.00735146 0)
(10.006 0.0200852 0)
(10.0148 0.0287246 0)
(10.0244 0.0341556 0)
(10.0336 0.0377565 0)
(10.0425 0.0399851 0)
(10.0513 0.0410234 0)
(10.0596 0.0411553 0)
(10.0674 0.0406386 0)
(10.0747 0.039622 0)
(10.0816 0.0381894 0)
(10.0881 0.0363979 0)
(10.0942 0.0342904 0)
(10.0998 0.0319008 0)
(10.1049 0.0292681 0)
(10.1094 0.0264459 0)
(10.1135 0.0235087 0)
(10.117 0.020569 0)
(10.0005 0.00599023 0)
(10.0047 0.016672 0)
(10.0119 0.0244096 0)
(10.0203 0.0294873 0)
(10.0287 0.0328553 0)
(10.0369 0.0349659 0)
(10.045 0.036005 0)
(10.0527 0.0361949 0)
(10.0601 0.0357544 0)
(10.067 0.0348267 0)
(10.0735 0.0334986 0)
(10.0797 0.0318321 0)
(10.0854 0.0298775 0)
(10.0906 0.0276791 0)
(10.0954 0.0252834 0)
(10.0998 0.0227455 0)
(10.1036 0.0201293 0)
(10.107 0.0175257 0)
(10.0004 0.00477337 0)
(10.0037 0.0134674 0)
(10.0096 0.0201095 0)
(10.0168 0.0246569 0)
(10.0243 0.0276936 0)
(10.0318 0.0296081 0)
(10.0392 0.0305827 0)
(10.0463 0.0307901 0)
(10.0532 0.0304064 0)
(10.0597 0.0295628 0)
(10.0659 0.0283456 0)
(10.0716 0.0268187 0)
(10.077 0.0250362 0)
(10.0819 0.0230473 0)
(10.0864 0.0209004 0)
(10.0905 0.0186478 0)
(10.0942 0.016342 0)
(10.0975 0.0140555 0)
(10.0003 0.00367603 0)
(10.0029 0.0104702 0)
(10.0077 0.0158749 0)
(10.0139 0.0197172 0)
(10.0205 0.0223085 0)
(10.0272 0.0239396 0)
(10.034 0.0247739 0)
(10.0406 0.0249451 0)
(10.0469 0.0245889 0)
(10.053 0.0238171 0)
(10.0587 0.0227107 0)
(10.0641 0.0213318 0)
(10.0692 0.0197339 0)
(10.0738 0.0179656 0)
(10.0781 0.0160733 0)
(10.082 0.0141029 0)
(10.0855 0.0120965 0)
(10.0887 0.0101118 0)
(10.0003 0.00267041 0)
(10.0023 0.0076531 0)
(10.0063 0.011729 0)
(10.0115 0.0147096 0)
(10.0173 0.0167326 0)
(10.0233 0.0179859 0)
(10.0294 0.018598 0)
(10.0355 0.0186699 0)
(10.0414 0.0183005 0)
(10.047 0.0175784 0)
(10.0523 0.0165732 0)
(10.0574 0.015341 0)
(10.0621 0.01393 0)
(10.0665 0.0123841 0)
(10.0705 0.0107439 0)
(10.0742 0.00904776 0)
(10.0776 0.00732822 0)
(10.0806 0.00563102 0)
(10.0002 0.00172684 0)
(10.0019 0.00496454 0)
(10.0052 0.00765194 0)
(10.0097 0.0096395 0)
(10.0148 0.0109711 0)
(10.0202 0.0117476 0)
(10.0257 0.0120534 0)
(10.0312 0.0119571 0)
(10.0367 0.0115256 0)
(10.0419 0.0108215 0)
(10.0469 0.00989843 0)
(10.0516 0.00880123 0)
(10.056 0.00756931 0)
(10.0601 0.00623835 0)
(10.0639 0.00484079 0)
(10.0675 0.00340644 0)
(10.0707 0.00195942 0)
(10.0737 0.00053559 0)
(10.0002 0.00080916 0)
(10.0016 0.00232404 0)
(10.0045 0.00357078 0)
(10.0084 0.0044578 0)
(10.013 0.0049854 0)
(10.0179 0.00518829 0)
(10.023 0.00510486 0)
(10.0281 0.00477104 0)
(10.0331 0.00422341 0)
(10.038 0.00349829 0)
(10.0426 0.00262912 0)
(10.0471 0.00164584 0)
(10.0512 0.000575632 0)
(10.0551 -0.000556524 0)
(10.0588 -0.00172787 0)
(10.0622 -0.00291756 0)
(10.0653 -0.00410931 0)
(10.0682 -0.00527611 0)
(10.0002 -7.93647e-05 0)
(10.0015 -0.000239179 0)
(10.0042 -0.000418382 0)
(10.0079 -0.000650297 0)
(10.0122 -0.000959428 0)
(10.0168 -0.00136517 0)
(10.0216 -0.00187293 0)
(10.0264 -0.00247869 0)
(10.0312 -0.00317419 0)
(10.0358 -0.00394899 0)
(10.0403 -0.00479093 0)
(10.0445 -0.00568665 0)
(10.0485 -0.00662244 0)
(10.0523 -0.00758477 0)
(10.0558 -0.00856075 0)
(10.0591 -0.00953807 0)
(10.0622 -0.0105073 0)
(10.0651 -0.0114492 0)
(10.0002 -0.000910291 0)
(10.0016 -0.00263183 0)
(10.0043 -0.00412806 0)
(10.0081 -0.00537975 0)
(10.0124 -0.00644508 0)
(10.017 -0.00740023 0)
(10.0217 -0.00829158 0)
(10.0265 -0.0091436 0)
(10.0311 -0.00997442 0)
(10.0357 -0.0107979 0)
(10.04 -0.0116217 0)
(10.0442 -0.0124476 0)
(10.0481 -0.0132744 0)
(10.0518 -0.0140987 0)
(10.0553 -0.0149163 0)
(10.0585 -0.0157219 0)
(10.0616 -0.0165115 0)
(10.0644 -0.0172716 0)
(10.0002 -0.00171496 0)
(10.0018 -0.00492775 0)
(10.0048 -0.00762617 0)
(10.0089 -0.00975494 0)
(10.0134 -0.0114459 0)
(10.0182 -0.0128485 0)
(10.023 -0.0140451 0)
(10.0278 -0.0150842 0)
(10.0326 -0.0160096 0)
(10.0371 -0.0168584 0)
(10.0415 -0.017655 0)
(10.0456 -0.0184138 0)
(10.0495 -0.0191438 0)
(10.0532 -0.0198505 0)
(10.0567 -0.0205364 0)
(10.0599 -0.0212016 0)
(10.063 -0.021846 0)
(10.0658 -0.0224604 0)
(10.0002 -0.0025627 0)
(10.0022 -0.00729805 0)
(10.0058 -0.0111182 0)
(10.0104 -0.0139796 0)
(10.0153 -0.0161648 0)
(10.0203 -0.0179148 0)
(10.0254 -0.0193366 0)
(10.0304 -0.0204986 0)
(10.0352 -0.0214723 0)
(10.0398 -0.0223164 0)
(10.0443 -0.0230687 0)
(10.0485 -0.0237534 0)
(10.0524 -0.0243882 0)
(10.0561 -0.0249859 0)
(10.0596 -0.0255546 0)
(10.0629 -0.0260987 0)
(10.0659 -0.0266206 0)
(10.0688 -0.027114 0)
(10.0003 -0.00352287 0)
(10.0028 -0.00988818 0)
(10.0072 -0.0147404 0)
(10.0126 -0.0181688 0)
(10.018 -0.0207174 0)
(10.0234 -0.0227197 0)
(10.0287 -0.024286 0)
(10.034 -0.0255062 0)
(10.039 -0.0264832 0)
(10.0438 -0.0272935 0)
(10.0483 -0.027983 0)
(10.0526 -0.0285832 0)
(10.0566 -0.0291194 0)
(10.0604 -0.0296109 0)
(10.0639 -0.0300708 0)
(10.0672 -0.0305064 0)
(10.0703 -0.0309224 0)
(10.0732 -0.0313133 0)
(10.0004 -0.00468106 0)
(10.0038 -0.0128399 0)
(10.0094 -0.0185717 0)
(10.0156 -0.0223688 0)
(10.0216 -0.0251619 0)
(10.0275 -0.0273317 0)
(10.0332 -0.0289635 0)
(10.0387 -0.0301802 0)
(10.044 -0.0311211 0)
(10.049 -0.0318736 0)
(10.0537 -0.0324852 0)
(10.0581 -0.0329923 0)
(10.0622 -0.0334271 0)
(10.0661 -0.0338148 0)
(10.0697 -0.0341724 0)
(10.0731 -0.0345099 0)
(10.0763 -0.034833 0)
(10.0793 -0.0351363 0)
(10.0006 -0.006148 0)
(10.0053 -0.0163101 0)
(10.0125 -0.0226513 0)
(10.0198 -0.0265773 0)
(10.0264 -0.0295122 0)
(10.0327 -0.0317833 0)
(10.0389 -0.0334194 0)
(10.0449 -0.0345896 0)
(10.0505 -0.0354681 0)
(10.0557 -0.0361449 0)
(10.0607 -0.0366651 0)
(10.0653 -0.03707 0)
(10.0696 -0.0373983 0)
(10.0737 -0.0376812 0)
(10.0774 -0.03794 0)
(10.081 -0.0381875 0)
(10.0843 -0.0384302 0)
(10.0874 -0.0386604 0)
(10.0009 -0.00805243 0)
(10.0076 -0.0204423 0)
(10.0169 -0.0270334 0)
(10.0254 -0.03085 0)
(10.0327 -0.0338155 0)
(10.0397 -0.0361076 0)
(10.0466 -0.0377 0)
(10.0531 -0.038807 0)
(10.0592 -0.0396183 0)
(10.0649 -0.0402139 0)
(10.0702 -0.0406339 0)
(10.0751 -0.0409251 0)
(10.0798 -0.0411336 0)
(10.084 -0.0412981 0)
(10.088 -0.0414457 0)
(10.0917 -0.041594 0)
(10.0952 -0.0417504 0)
(10.0984 -0.0419002 0)
(10.0015 -0.0106279 0)
(10.0111 -0.0252179 0)
(10.0234 -0.0317139 0)
(10.0334 -0.0354052 0)
(10.0418 -0.0383386 0)
(10.05 -0.0404924 0)
(10.0579 -0.04191 0)
(10.0652 -0.0428829 0)
(10.072 -0.0435922 0)
(10.0784 -0.0440905 0)
(10.0843 -0.0444071 0)
(10.0898 -0.0445903 0)
(10.0948 -0.0446904 0)
(10.0994 -0.0447515 0)
(10.1037 -0.044807 0)
(10.1076 -0.044879 0)
(10.1113 -0.0449787 0)
(10.1147 -0.0450787 0)
(10.0027 -0.014763 0)
(10.0176 -0.0305638 0)
(10.0343 -0.0361568 0)
(10.0472 -0.0399467 0)
(10.0579 -0.0431506 0)
(10.0682 -0.0452452 0)
(10.078 -0.0464426 0)
(10.087 -0.0471846 0)
(10.0951 -0.047668 0)
(10.1026 -0.0479289 0)
(10.1095 -0.0479984 0)
(10.1157 -0.0479341 0)
(10.1214 -0.0477946 0)
(10.1264 -0.0476323 0)
(10.131 -0.0474896 0)
(10.135 -0.0473929 0)
(10.1387 -0.0473553 0)
(10.142 -0.0473192 0)
(10.0071 -0.022652 0)
(10.0358 -0.0379714 0)
(10.0619 -0.0403226 0)
(10.082 -0.0431317 0)
(10.099 -0.0466253 0)
(10.1146 -0.0491819 0)
(10.1287 -0.050774 0)
(10.1408 -0.05184 0)
(10.1512 -0.0525597 0)
(10.1601 -0.0529434 0)
(10.1677 -0.0530318 0)
(10.1739 -0.0528984 0)
(10.1788 -0.0526274 0)
(10.1825 -0.0522895 0)
(10.1852 -0.0519696 0)
(10.187 -0.051733 0)
(10.1881 -0.0515944 0)
(10.1885 -0.0515901 0)
(10.0395 -0.0339809 0)
(10.1198 -0.0589248 0)
(10.1741 -0.0605018 0)
(10.2065 -0.0592427 0)
(10.2275 -0.0586819 0)
(10.2407 -0.0579237 0)
(10.2464 -0.0568848 0)
(10.2454 -0.0558463 0)
(10.2391 -0.0548462 0)
(10.2286 -0.0537894 0)
(10.2146 -0.0526364 0)
(10.1978 -0.0514061 0)
(10.1789 -0.0501502 0)
(10.1581 -0.0489411 0)
(10.1362 -0.0478464 0)
(10.1137 -0.0469747 0)
(10.0912 -0.0463726 0)
(10.0691 -0.0464114 0)
(9.89207 -0.0267098 0)
(9.69518 -0.051954 0)
(9.49453 -0.0597792 0)
(9.295 -0.0618433 0)
(9.10649 -0.0618619 0)
(8.93243 -0.0603475 0)
(8.77196 -0.0578234 0)
(8.62351 -0.0548668 0)
(8.48645 -0.0517446 0)
(8.36052 -0.0485226 0)
(8.24517 -0.0452608 0)
(8.13973 -0.0420417 0)
(8.04345 -0.0389141 0)
(7.95561 -0.0359189 0)
(7.87539 -0.0331902 0)
(7.80142 -0.0309137 0)
(7.73232 -0.0291118 0)
(7.66789 -0.0280808 0)
(-0.00336145 0.00944684 0)
(-0.0155889 0.0153686 0)
(-0.0322334 0.0165106 0)
(-0.0507132 0.0138695 0)
(-0.0663432 0.00682343 0)
(-0.0703552 -0.0041838 0)
(-0.0558345 -0.0185589 -8.28138e-19)
(-0.0272631 -0.0348186 9.84566e-19)
(0.0123127 -0.0484089 0)
(0.0591042 -0.0561623 6.77359e-19)
(0.110333 -0.0583838 0)
(0.16219 -0.0565675 0)
(0.211082 -0.0519374 0)
(0.254891 -0.0455231 -2.87821e-19)
(0.292582 -0.0381279 0)
(0.323674 -0.0302662 0)
(0.347998 -0.0222481 2.31537e-19)
(0.365539 -0.0141934 0)
(0.376161 -0.00606955 0)
(0.38024 0.00240622 0)
(0.376293 0.0112882 -2.22019e-19)
(0.364728 0.0202432 0)
(0.345994 0.0286909 -2.35498e-19)
(0.320438 0.0360046 0)
(0.288613 0.0415754 0)
(0.251415 0.0447839 -2.99584e-19)
(0.210163 0.0450324 0)
(0.166588 0.0418353 4.02934e-19)
(0.122824 0.0349825 0)
(0.0813321 0.0247812 -6.33109e-19)
(0.0447803 0.01252 0)
(0.0156648 0.00107777 0)
(-0.00470719 -0.00584334 0)
(-0.01812 -0.00757228 0)
(-0.0265122 -0.00592086 0)
(-0.031335 -0.00292719 1.22303e-18)
(-0.0342431 -0.000687126 0)
(-0.0357809 -0.000603753 -2.39667e-18)
(-0.0339028 -0.0032699 0)
(-0.0261755 -0.00831054 2.52576e-18)
(-0.010759 -0.0149015 0)
(0.0123322 -0.0216606 0)
(0.0410632 -0.026033 -1.84689e-18)
(0.0719764 -0.0265453 0)
(0.100577 -0.0230527 -1.18216e-18)
(0.123173 -0.0168173 1.06155e-18)
(0.137601 -0.00962129 0)
(0.143709 -0.00322875 1.00137e-18)
(0.143085 0.000534615 1.00633e-18)
(0.139445 0.00170792 0)
(0.135433 0.00154097 0)
(0.138959 -0.00517923 0)
(0.149545 -0.0205279 0)
(0.157265 -0.0378839 0)
(0.14841 -0.0505338 -9.33149e-19)
(0.112798 -0.0450847 0)
(0.0441027 -0.0116716 1.20928e-18)
(-0.0864567 0.042769 0)
(-0.243239 0.0842371 0)
(-0.413877 0.112751 -3.26549e-19)
(-0.59428 0.130353 0)
(-0.775788 0.138069 2.02269e-19)
(-0.952479 0.137206 0)
(-1.11957 0.130436 0)
(-1.27398 0.120482 0)
(-1.41436 0.109016 -1.27481e-19)
(-1.54075 0.0973041 0)
(-1.65372 0.0861163 0)
(-1.75437 0.0759252 -1.08273e-19)
(-1.84405 0.0669296 0)
(-1.92414 0.0591666 -1.00989e-19)
(-1.996 0.0525599 0)
(-2.06083 0.0469849 0)
(-2.11971 0.0422921 0)
(-2.17351 0.0383349 9.1916e-20)
(-2.22299 0.0349818 0)
(-2.26874 0.0321157 0)
(-2.31127 0.0296415 8.73499e-20)
(-2.35095 0.0274786 8.60532e-20)
(-2.38811 0.0255601 0)
(-2.42298 0.0238374 8.3692e-20)
(-2.45577 0.0222624 0)
(-2.48661 0.0208029 1.63107e-19)
(-2.51562 0.0194287 0)
(-2.54288 0.0181175 1.5915e-19)
(-2.56844 0.016848 0)
(-2.59236 0.0156044 -1.55426e-19)
(-2.61464 0.0143701 0)
(-2.6353 0.0131322 0)
(-2.65434 0.0118785 0)
(-2.67175 0.0105989 1.48439e-19)
(-2.68751 0.00928945 0)
(-2.70157 0.00795282 -1.45094e-19)
(-2.71389 0.00660093 0)
(-2.72441 0.00525941 1.41828e-19)
(-2.73305 0.00396246 1.40223e-19)
(-2.73969 0.00273213 1.38635e-19)
(-2.74429 0.00158775 0)
(-2.74681 0.000593786 0)
(-2.74779 -0.00028237 0)
(-2.7472 -0.00112738 0)
(-2.7451 -0.00196013 0)
(-2.74147 -0.00278979 0)
(-2.73632 -0.00361835 0)
(-2.72963 -0.0044453 0)
(-2.7214 -0.00527026 -1.22758e-19)
(-2.71162 -0.00609226 -1.20757e-19)
(-2.70031 -0.00691074 0)
(-2.68745 -0.0077257 0)
(-2.67307 -0.0085355 0)
(-2.65716 -0.0093391 -1.12121e-19)
(-2.63975 -0.010132 0)
(-2.62085 -0.0109134 0)
(-2.60049 -0.0116794 0)
(-2.57869 -0.0124307 0)
(-2.55548 -0.0131609 9.96374e-20)
(-2.5309 -0.0138686 0)
(-2.50498 -0.0145413 0)
(-2.47779 -0.0151699 -9.1089e-20)
(-2.44936 -0.015734 8.80449e-20)
(-2.41977 -0.0162311 0)
(-2.38907 -0.0167533 8.16701e-20)
(-2.35727 -0.0172288 0)
(-2.32449 -0.0175692 -7.48845e-20)
(-2.29077 -0.0177609 0)
(-2.25628 -0.0178391 0)
(-2.22101 -0.0177957 0)
(-2.18509 -0.0179396 0)
(-2.14842 -0.0183206 0)
(-2.11117 -0.0185634 1.04551e-19)
(-2.07337 -0.0187841 9.63806e-20)
(-2.03515 -0.0189423 0)
(-1.99655 -0.019065 0)
(-1.95764 -0.0191373 0)
(-1.91852 -0.0191701 -6.19342e-20)
(-1.87926 -0.0191626 0)
(-1.83995 -0.0191194 0)
(-1.80065 -0.0190319 0)
(-1.76141 -0.0189076 -2.50213e-20)
(-1.72229 -0.0187454 1.54641e-20)
(-1.68335 -0.0185565 0)
(-1.64463 -0.0183323 0)
(-1.60621 -0.0180703 -1.38314e-20)
(-1.56813 -0.0177762 -2.37673e-20)
(-1.53042 -0.0174491 0)
(-1.49313 -0.0170862 0)
(-1.45626 -0.0166983 5.39616e-20)
(-1.41985 -0.0162908 -6.41325e-20)
(-1.38392 -0.0158735 0)
(-1.34848 -0.0154298 0)
(-1.31356 -0.014958 -9.48673e-20)
(-1.27915 -0.0144919 0)
(-1.24521 -0.0140249 0)
(-1.21181 -0.0135509 -1.25796e-19)
(-1.17887 -0.0130876 0)
(-1.1464 -0.0126369 -1.46545e-19)
(-1.1143 -0.0121882 0)
(-1.08264 -0.0117311 0)
(-1.05131 -0.0112926 0)
(-1.02028 -0.0108578 1.88335e-19)
(-0.989478 -0.0104321 0)
(-0.958813 -0.010065 0)
(-0.928136 -0.00973639 0)
(-0.897411 -0.00943136 0)
(-0.866495 -0.00916506 0)
(-0.835307 -0.00892952 0)
(-0.803716 -0.00874909 2.66529e-19)
(-0.771601 -0.00859705 2.78847e-19)
(-0.738897 -0.00849089 0)
(-0.7054 -0.00843596 0)
(-0.671086 -0.00842369 0)
(-0.635686 -0.00850042 -3.353e-19)
(-0.59918 -0.00858127 0)
(-0.561476 -0.00870938 7.39576e-19)
(-0.522558 -0.00887388 -7.78568e-19)
(-0.482638 -0.0090442 -8.21503e-19)
(-0.441716 -0.00923324 8.68872e-19)
(-0.399303 -0.0097191 -9.21462e-19)
(-0.356415 -0.0123624 9.78754e-19)
(-0.31959 -0.0189304 0)
(9.65262e-05 0.0250201 0)
(-0.00652762 0.043336 0)
(-0.0151553 0.0460916 2.49414e-18)
(-0.0195438 0.0380611 0)
(-0.00933251 0.0171827 -2.96496e-18)
(0.0205978 -0.0210124 -2.08088e-18)
(0.0608404 -0.0701279 -6.01064e-19)
(0.10921 -0.113865 -4.0669e-19)
(0.161332 -0.143672 0)
(0.212969 -0.15779 -2.5008e-19)
(0.261043 -0.158508 0)
(0.30404 -0.149825 0)
(0.341526 -0.135396 3.53526e-19)
(0.373556 -0.117855 1.66072e-19)
(0.400292 -0.099005 -3.1905e-19)
(0.422052 -0.0799205 -3.10616e-19)
(0.439199 -0.0611274 -1.52845e-19)
(0.452065 -0.042844 0)
(0.461045 -0.0250631 0)
(0.466332 -0.00756484 0)
(0.469191 0.00985829 -1.57064e-19)
(0.469325 0.0271423 0)
(0.466304 0.0441203 4.83461e-19)
(0.459575 0.0605083 0)
(0.44845 0.0758774 0)
(0.432209 0.0895805 1.762e-19)
(0.410217 0.100727 0)
(0.382095 0.108223 -1.96499e-19)
(0.347879 0.110925 -4.25916e-19)
(0.308145 0.107915 2.3581e-19)
(0.264085 0.0988668 0)
(0.217562 0.0844595 0)
(0.17104 0.0664222 0)
(0.127378 0.0468888 -9.70265e-19)
(0.0898776 0.0280347 -1.25067e-18)
(0.0616524 0.0117775 -8.08722e-19)
(0.0447828 -0.00131839 0)
(0.0395015 -0.013242 2.32868e-18)
(0.0468285 -0.0253935 0)
(0.0627243 -0.0397714 -1.57097e-18)
(0.0855753 -0.0560357 0)
(0.113306 -0.0701564 0)
(0.140809 -0.0763435 7.79169e-19)
(0.163325 -0.0720233 0)
(0.178264 -0.0588173 1.89882e-18)
(0.185022 -0.0410061 -6.30446e-19)
(0.184281 -0.0224653 0)
(0.177076 -0.00719433 -7.0601e-19)
(0.166535 -0.000269338 -7.53075e-19)
(0.152856 -0.00240175 0)
(0.130507 -0.00951126 0)
(0.0878758 -0.0145954 0)
(-0.011907 0.0111127 0)
(-0.174979 0.0805696 0)
(-0.361373 0.153909 3.45392e-19)
(-0.558109 0.220702 4.81599e-19)
(-0.755132 0.279329 -1.82659e-19)
(-0.948431 0.323818 0)
(-1.1312 0.348472 2.52279e-19)
(-1.29967 0.355089 -1.12071e-19)
(-1.45078 0.347333 0)
(-1.58295 0.329001 -9.25308e-20)
(-1.69665 0.303861 0)
(-1.79334 0.275289 0)
(-1.87534 0.245992 -1.60415e-19)
(-1.94515 0.217874 7.7069e-20)
(-2.00518 0.192065 -1.50665e-19)
(-2.0575 0.169104 1.46901e-19)
(-2.10382 0.149129 7.15806e-20)
(-2.14548 0.132019 0)
(-2.18347 0.117504 6.89293e-20)
(-2.21852 0.105248 0)
(-2.25114 0.094904 0)
(-2.28169 0.0861447 0)
(-2.31044 0.0786789 6.47676e-20)
(-2.33757 0.0722583 0)
(-2.36322 0.0666758 1.25924e-19)
(-2.3875 0.0617612 -1.86395e-19)
(-2.41045 0.0573799 -6.13487e-20)
(-2.43215 0.0534221 0)
(-2.45261 0.0497999 -5.98343e-20)
(-2.47185 0.0464396 0)
(-2.4899 0.04329 -1.16786e-19)
(-2.50677 0.0403048 0)
(-2.52245 0.0374523 -1.1401e-19)
(-2.53695 0.0347035 2.25162e-19)
(-2.55027 0.0320385 1.11309e-19)
(-2.5624 0.0294374 0)
(-2.57335 0.0268849 0)
(-2.58309 0.0243643 0)
(-2.59165 0.0218595 -1.06025e-19)
(-2.59902 0.0193564 0)
(-2.60521 0.0168421 1.03402e-19)
(-2.61025 0.0143069 0)
(-2.61418 0.011751 -3.02374e-19)
(-2.61706 0.00919302 -9.94713e-20)
(-2.61899 0.00666871 -9.81603e-20)
(-2.62004 0.00422902 0)
(-2.62027 0.00194374 0)
(-2.61918 -0.000214618 0)
(-2.6167 -0.00232045 0)
(-2.61277 -0.00439333 0)
(-2.60738 -0.00644222 -1.79106e-19)
(-2.6005 -0.00846828 -1.76036e-19)
(-2.59214 -0.0104687 0)
(-2.58229 -0.0124402 8.47212e-20)
(-2.57094 -0.0143781 8.30724e-20)
(-2.55811 -0.0162782 0)
(-2.54378 -0.0181366 1.5968e-19)
(-2.52797 -0.0199493 0)
(-2.5107 -0.0217139 -7.65104e-20)
(-2.49197 -0.0234256 0)
(-2.47182 -0.0250819 0)
(-2.45025 -0.0266769 1.4132e-19)
(-2.42731 -0.028209 0)
(-2.40302 -0.0296714 -6.63697e-20)
(-2.37741 -0.0310636 0)
(-2.35053 -0.0323783 0)
(-2.32242 -0.0336173 -6.06286e-20)
(-2.29313 -0.0347747 -5.77029e-20)
(-2.26269 -0.0358553 0)
(-2.23118 -0.0368517 5.38231e-20)
(-2.19865 -0.0377624 0)
(-2.16518 -0.0385855 -4.90155e-20)
(-2.13082 -0.0393343 -9.22287e-20)
(-2.09561 -0.0400043 0)
(-2.05961 -0.0406021 0)
(-2.0229 -0.0411033 0)
(-1.9856 -0.0414974 0)
(-1.9478 -0.0417669 -6.50704e-20)
(-1.90954 -0.0419333 -1.80596e-19)
(-1.87088 -0.0420189 0)
(-1.83191 -0.0420187 0)
(-1.79268 -0.0419238 0)
(-1.75326 -0.041751 3.71367e-20)
(-1.71373 -0.041504 0)
(-1.67417 -0.0411947 0)
(-1.63462 -0.0408257 -4.18172e-20)
(-1.59514 -0.0403991 -1.60779e-20)
(-1.55579 -0.0399103 -8.50637e-21)
(-1.51661 -0.0393782 0)
(-1.47766 -0.0388018 0)
(-1.43899 -0.0381819 8.59744e-21)
(-1.40063 -0.0375233 -1.25373e-20)
(-1.36264 -0.0368308 0)
(-1.325 -0.0361059 0)
(-1.28776 -0.0353553 -3.08223e-20)
(-1.25092 -0.0345872 1.07165e-19)
(-1.2145 -0.0338234 0)
(-1.17852 -0.0330649 0)
(-1.14298 -0.0323124 5.1988e-20)
(-1.10785 -0.0315679 0)
(-1.07313 -0.0308508 1.22807e-19)
(-1.03881 -0.0301659 -6.57066e-20)
(-1.00486 -0.029511 0)
(-0.971238 -0.0288801 7.63048e-20)
(-0.937936 -0.028291 1.60601e-19)
(-0.904908 -0.0277505 0)
(-0.872069 -0.0272639 0)
(-0.839382 -0.026843 -9.36969e-20)
(-0.806759 -0.0265001 0)
(-0.774112 -0.0262356 2.02738e-19)
(-0.741383 -0.0260513 0)
(-0.708456 -0.0259549 0)
(-0.675222 -0.0259548 0)
(-0.641562 -0.026045 0)
(-0.607343 -0.0262246 -1.19725e-19)
(-0.572455 -0.0265058 -1.22999e-19)
(-0.536751 -0.0268802 0)
(-0.500113 -0.0273575 0)
(-0.462363 -0.0279404 0)
(-0.423398 -0.0285978 1.35819e-19)
(-0.383089 -0.0293388 0)
(-0.341281 -0.0301215 -2.84554e-19)
(-0.297926 -0.0308906 2.91215e-19)
(-0.253049 -0.0315718 2.98235e-19)
(-0.206595 -0.0320783 3.05076e-19)
(-0.158537 -0.0321653 3.14086e-19)
(-0.105956 -0.0341093 3.21906e-19)
(-0.06826 -0.0342426 0)
(0.00104576 0.0269744 0)
(0.00213187 0.0489943 0)
(0.00616517 0.0465599 -2.70895e-18)
(0.0222138 0.018988 -2.19777e-18)
(0.0592115 -0.0408706 1.33718e-18)
(0.112819 -0.117255 8.20092e-19)
(0.17173 -0.185049 -2.98568e-22)
(0.226605 -0.229524 0)
(0.273275 -0.2486 0)
(0.31106 -0.247254 0)
(0.341035 -0.232217 0)
(0.364845 -0.209357 0)
(0.383983 -0.182838 -8.0817e-19)
(0.399447 -0.155218 0)
(0.41188 -0.127932 2.50524e-19)
(0.421709 -0.101677 2.45855e-19)
(0.429215 -0.0766983 0)
(0.434583 -0.0530227 0)
(0.437981 -0.0305763 0)
(0.439538 -0.00925779 0)
(0.439523 0.0111161 2.52016e-19)
(0.438264 0.0309095 0)
(0.436075 0.0504571 -2.58645e-19)
(0.433223 0.069918 0)
(0.429758 0.0892067 0)
(0.425458 0.10795 0)
(0.419777 0.125445 -5.96608e-19)
(0.411844 0.140655 0)
(0.400533 0.152261 3.27496e-19)
(0.38468 0.158839 -6.93559e-19)
(0.363399 0.15913 0)
(0.336505 0.152382 0)
(0.304845 0.138628 0)
(0.270437 0.118677 5.02367e-19)
(0.236349 0.0939756 5.763e-19)
(0.206116 0.0663264 0)
(0.182936 0.0373041 0)
(0.169273 0.00749672 -1.77651e-18)
(0.164757 -0.0231789 -1.73638e-18)
(0.168977 -0.0539494 1.53495e-18)
(0.179036 -0.0814941 0)
(0.188183 -0.0974195 0)
(0.190133 -0.0965276 0)
(0.182926 -0.0806326 0)
(0.167098 -0.0552388 -9.56972e-19)
(0.143954 -0.0282147 -1.04855e-18)
(0.113923 -0.00275672 1.19049e-18)
(0.0751992 0.020969 0)
(0.0160801 0.0405603 0)
(-0.0890048 0.0747767 0)
(-0.235924 0.140003 0)
(-0.414736 0.218821 -5.38723e-19)
(-0.610232 0.300794 0)
(-0.807271 0.378422 0)
(-0.994992 0.442704 -2.5377e-19)
(-1.16678 0.49098 -2.16859e-19)
(-1.31598 0.522509 0)
(-1.4385 0.535038 3.48481e-19)
(-1.53641 0.529015 -1.59197e-19)
(-1.61349 0.50753 1.4876e-19)
(-1.67419 0.474755 0)
(-1.72311 0.435076 0)
(-1.76421 0.392394 0)
(-1.80066 0.349906 0)
(-1.83458 0.309839 1.19488e-19)
(-1.86722 0.273515 2.33269e-19)
(-1.89921 0.24149 1.12708e-19)
(-1.93077 0.213799 -1.09845e-19)
(-1.96191 0.190155 0)
(-1.9925 0.170105 2.10197e-19)
(-2.02241 0.153143 2.05735e-19)
(-2.05151 0.138766 2.01637e-19)
(-2.07969 0.126522 -1.97844e-19)
(-2.10688 0.116002 0)
(-2.13303 0.106876 -2.86425e-19)
(-2.15811 0.0988696 0)
(-2.1821 0.0917559 9.23067e-20)
(-2.20501 0.0853615 9.10085e-20)
(-2.22683 0.079541 0)
(-2.24757 0.0741744 0)
(-2.26723 0.0691676 1.73952e-19)
(-2.28582 0.0644462 0)
(-2.30334 0.0599539 1.69053e-19)
(-2.31978 0.0556431 0)
(-2.33514 0.0514786 -1.64365e-19)
(-2.34943 0.0474315 -3.24294e-19)
(-2.36263 0.0434807 0)
(-2.37473 0.0396087 0)
(-2.38573 0.0358025 0)
(-2.39562 0.0320511 -1.5324e-19)
(-2.40441 0.0283462 0)
(-2.41209 0.0246837 -1.4893e-19)
(-2.41866 0.0210637 0)
(-2.42412 0.0174897 0)
(-2.42847 0.0139664 2.85074e-19)
(-2.43169 0.0104967 0)
(-2.43374 0.00707683 1.38275e-19)
(-2.43459 0.00369592 0)
(-2.43416 0.000320415 1.33705e-19)
(-2.4324 -0.00305741 0)
(-2.42927 -0.00641562 0)
(-2.42475 -0.00974635 0)
(-2.41881 -0.0130457 3.72585e-19)
(-2.41144 -0.016309 1.2163e-19)
(-2.40264 -0.0195305 0)
(-2.39239 -0.022704 0)
(-2.3807 -0.0258224 0)
(-2.36756 -0.0288788 0)
(-2.35298 -0.0318659 -1.08759e-19)
(-2.33696 -0.0347774 2.12738e-19)
(-2.31953 -0.0376065 1.03311e-19)
(-2.30069 -0.0403475 -2.01746e-19)
(-2.28047 -0.0429939 -1.96105e-19)
(-2.25889 -0.0455399 -9.47799e-20)
(-2.23597 -0.047979 0)
(-2.21176 -0.0503052 -1.78576e-19)
(-2.18627 -0.0525117 0)
(-2.15956 -0.0545922 1.66371e-19)
(-2.13165 -0.0565403 7.95438e-20)
(-2.10261 -0.0583511 0)
(-2.07248 -0.0600217 -1.47271e-19)
(-2.04132 -0.0615523 -6.97792e-20)
(-2.00919 -0.0629334 0)
(-1.97615 -0.0641587 -6.42271e-20)
(-1.94227 -0.0652285 1.79975e-19)
(-1.9076 -0.0661455 0)
(-1.87221 -0.0669178 0)
(-1.83619 -0.0675562 0)
(-1.79963 -0.0680569 0)
(-1.76258 -0.0684049 8.5019e-20)
(-1.72513 -0.0685997 7.64608e-20)
(-1.68733 -0.0686535 0)
(-1.64925 -0.0685746 0)
(-1.61094 -0.06836 0)
(-1.57248 -0.0680204 0)
(-1.53392 -0.0675676 0)
(-1.49534 -0.0670082 0)
(-1.45679 -0.0663546 2.57268e-20)
(-1.41832 -0.0656126 -1.28848e-21)
(-1.37998 -0.0647805 0)
(-1.34181 -0.0638782 0)
(-1.30388 -0.0629086 -1.24783e-21)
(-1.26621 -0.0618759 0)
(-1.22884 -0.0607872 1.60919e-20)
(-1.1918 -0.0596489 2.1609e-20)
(-1.1551 -0.0584683 0)
(-1.11875 -0.0572548 0)
(-1.08277 -0.0560196 -4.19985e-20)
(-1.04716 -0.0547906 -9.43082e-20)
(-1.01195 -0.0535733 0)
(-0.977113 -0.0523724 0)
(-0.942634 -0.0511964 0)
(-0.908517 -0.0500582 -7.13245e-20)
(-0.874715 -0.048967 7.67137e-20)
(-0.841203 -0.0479293 0)
(-0.807946 -0.0469447 1.72548e-19)
(-0.774928 -0.0460252 9.05029e-20)
(-0.742063 -0.0451793 -1.91881e-19)
(-0.709298 -0.0444191 0)
(-0.676586 -0.043757 0)
(-0.643838 -0.0432106 -2.18258e-19)
(-0.610974 -0.0427887 -1.13655e-19)
(-0.577928 -0.0424919 0)
(-0.544577 -0.042327 0)
(-0.510815 -0.0423093 0)
(-0.47652 -0.042433 0)
(-0.441558 -0.0426992 -2.61565e-19)
(-0.405807 -0.0431129 0)
(-0.369108 -0.0436736 0)
(-0.331344 -0.0443851 0)
(-0.292321 -0.045254 0)
(-0.25193 -0.0462497 0)
(-0.210001 -0.047366 0)
(-0.16638 -0.0485594 -3.00002e-19)
(-0.120958 -0.0497715 0)
(-0.0736739 -0.0508972 0)
(-0.0243136 -0.0518754 -6.321e-19)
(0.0263354 -0.0524135 3.19171e-19)
(0.0825552 -0.0541538 -3.21e-19)
(0.125891 -0.0539034 3.21613e-19)
(-0.00110649 0.0259245 0)
(0.000903459 0.0378665 5.98105e-18)
(0.0176004 0.00781707 0)
(0.0629583 -0.073311 1.21624e-18)
(0.128365 -0.174216 0)
(0.195209 -0.258085 0)
(0.250458 -0.307466 -3.91405e-19)
(0.29033 -0.323421 0)
(0.317016 -0.315329 0)
(0.334518 -0.293144 0)
(0.346388 -0.26408 0)
(0.355009 -0.232426 0)
(0.361726 -0.200424 9.05079e-19)
(0.367183 -0.169115 4.38711e-19)
(0.371637 -0.138956 -4.29402e-19)
(0.375136 -0.110139 0)
(0.377652 -0.0827179 0)
(0.379152 -0.0566741 0)
(0.379625 -0.0319579 0)
(0.379088 -0.00850205 0)
(0.377605 0.0137855 4.41574e-19)
(0.375289 0.0350611 4.44814e-19)
(0.372339 0.0555031 -4.51129e-19)
(0.369033 0.0752768 4.61071e-19)
(0.365668 0.0944953 0)
(0.362501 0.113155 0)
(0.359653 0.131042 5.14946e-19)
(0.357043 0.147697 0)
(0.354286 0.162336 0)
(0.350642 0.17383 6.06352e-19)
(0.345093 0.180769 6.43234e-19)
(0.336584 0.181645 6.84174e-19)
(0.324394 0.175162 0)
(0.308501 0.160493 0)
(0.289785 0.137518 -8.72739e-19)
(0.269952 0.107006 0)
(0.251251 0.0704564 0)
(0.235831 0.0299868 1.24038e-18)
(0.224555 -0.0120735 -1.28796e-18)
(0.215563 -0.0515146 1.14237e-18)
(0.202861 -0.0790209 0)
(0.180779 -0.0845575 0)
(0.148565 -0.0692207 1.8088e-18)
(0.105239 -0.0395648 0)
(0.0518244 0.000360633 2.18398e-18)
(-0.0157362 0.0452406 3.4706e-18)
(-0.112262 0.0970099 -2.74501e-18)
(-0.236493 0.164424 1.32626e-18)
(-0.387511 0.244432 0)
(-0.561225 0.331645 0)
(-0.743248 0.420266 6.00797e-19)
(-0.921977 0.501871 2.47148e-19)
(-1.08559 0.568337 0)
(-1.22673 0.615235 0)
(-1.34219 0.642273 1.66331e-19)
(-1.4327 0.651323 3.06739e-19)
(-1.49976 0.644514 0)
(-1.54693 0.624276 -2.63113e-19)
(-1.57952 0.593001 2.49742e-19)
(-1.60276 0.553887 -2.3639e-19)
(-1.62121 0.510233 0)