/*--------------------------------*- C++ -*----------------------------------*\
| =========                 |                                                 |
| \\      /  F ield         | OpenFOAM: The Open Source CFD Toolbox           |
|  \\    /   O peration     | Version:  4.x                                   |
|   \\  /    A nd           | Web:      www.OpenFOAM.org                      |
|    \\/     M anipulation  |                                                 |
\*---------------------------------------------------------------------------*/
FoamFile
{
    version     2.0;
    format      ascii;
    class       volScalarField;
    location    "406";
    object      k;
}
// * * * * * * * * * * * * * * * * * * * * * * * * * * * * * * * * * * * * * //

dimensions      [0 2 -2 0 0 0 0];

internalField   nonuniform List<scalar> 
12225
(
0.546236
0.818696
0.988352
1.07612
1.10249
1.09654
1.08001
1.05
1.01789
0.987154
0.958691
0.932499
0.909941
0.888541
0.872435
0.854559
0.845645
0.829688
0.383651
0.386073
0.4006
0.416653
0.430944
0.447082
0.46279
0.482598
0.502334
0.526871
0.54403
0.566838
0.581713
0.602767
0.615161
0.634309
0.643899
0.660281
0.373389
0.371662
0.370362
0.368468
0.364896
0.359674
0.354682
0.349576
0.345461
0.342119
0.339321
0.337158
0.335348
0.33418
0.333106
0.33272
0.332009
0.332167
0.374206
0.370601
0.368551
0.36631
0.364085
0.360671
0.357439
0.353307
0.349636
0.345334
0.341658
0.337509
0.334036
0.330153
0.326875
0.32336
0.320294
0.317171
0.374176
0.371139
0.368957
0.366722
0.364799
0.362339
0.360075
0.357296
0.354776
0.351831
0.349224
0.346223
0.34361
0.340697
0.338197
0.335418
0.333079
0.330431
0.374024
0.371469
0.369329
0.36717
0.365297
0.363231
0.361333
0.359209
0.357237
0.355064
0.353068
0.350899
0.348924
0.346801
0.344902
0.342852
0.341058
0.339082
0.373913
0.371576
0.369465
0.367382
0.365504
0.363607
0.361851
0.360037
0.358329
0.356557
0.354889
0.353164
0.351551
0.349885
0.348345
0.346747
0.34529
0.343752
0.373868
0.371587
0.369477
0.367431
0.36554
0.363697
0.361976
0.360274
0.358666
0.357059
0.355535
0.354009
0.352565
0.351115
0.349753
0.348377
0.347097
0.345782
0.373848
0.371582
0.369464
0.367432
0.36553
0.363705
0.36199
0.360333
0.358763
0.357235
0.355781
0.354358
0.353006
0.351676
0.350416
0.349169
0.347994
0.346816
0.373838
0.371574
0.369445
0.367416
0.365504
0.363681
0.361961
0.360317
0.358759
0.357263
0.355842
0.354471
0.353167
0.351905
0.350706
0.349539
0.34843
0.347344
0.373832
0.371567
0.369428
0.367397
0.365475
0.363649
0.361921
0.360275
0.358715
0.357226
0.355811
0.354458
0.353171
0.351938
0.350763
0.349635
0.348557
0.347521
0.373829
0.371561
0.369415
0.36738
0.365451
0.36362
0.361884
0.360233
0.358666
0.357174
0.355755
0.354403
0.353117
0.351889
0.350718
0.3496
0.348532
0.347511
0.373828
0.371557
0.369406
0.367367
0.365433
0.363597
0.361854
0.360199
0.358625
0.357128
0.355703
0.354347
0.353055
0.351824
0.350649
0.34953
0.34846
0.347441
0.373826
0.371554
0.369399
0.367357
0.365419
0.363579
0.361831
0.360171
0.358592
0.35709
0.355661
0.354299
0.353002
0.351767
0.350588
0.349464
0.34839
0.347367
0.373826
0.371552
0.369395
0.367349
0.365408
0.363565
0.361814
0.36015
0.358567
0.357061
0.355628
0.354262
0.352961
0.351721
0.350538
0.34941
0.348333
0.347306
0.373825
0.37155
0.369392
0.367344
0.365401
0.363555
0.361802
0.360134
0.358549
0.35704
0.355603
0.354235
0.35293
0.351687
0.350501
0.34937
0.34829
0.34726
0.373825
0.371549
0.36939
0.367341
0.365396
0.363549
0.361793
0.360124
0.358536
0.357025
0.355586
0.354215
0.352909
0.351663
0.350475
0.349342
0.34826
0.347228
0.373825
0.371549
0.369389
0.36734
0.365394
0.363546
0.36179
0.360119
0.35853
0.357018
0.355577
0.354205
0.352897
0.35165
0.350461
0.349326
0.348243
0.34721
0.373825
0.371549
0.36939
0.367341
0.365395
0.363547
0.36179
0.360119
0.35853
0.357017
0.355576
0.354203
0.352895
0.351647
0.350458
0.349323
0.348239
0.347205
0.373825
0.37155
0.369391
0.367343
0.365398
0.36355
0.361794
0.360124
0.358535
0.357022
0.355581
0.354209
0.352901
0.351653
0.350464
0.349329
0.348246
0.347212
0.373826
0.371551
0.369394
0.367347
0.365403
0.363556
0.361801
0.360132
0.358544
0.357032
0.355592
0.35422
0.352913
0.351666
0.350477
0.349342
0.348259
0.347225
0.373826
0.371554
0.369398
0.367352
0.36541
0.363566
0.361812
0.360145
0.358558
0.357047
0.355607
0.354235
0.352927
0.351679
0.350488
0.349351
0.348264
0.347227
0.373827
0.371558
0.369403
0.367361
0.365421
0.363579
0.361827
0.36016
0.35857
0.357055
0.355609
0.354229
0.35291
0.35165
0.350443
0.349291
0.348186
0.347131
0.373827
0.371566
0.36941
0.36737
0.365431
0.36359
0.36183
0.360148
0.358534
0.356991
0.355508
0.354089
0.352723
0.351414
0.350152
0.348944
0.347776
0.346662
0.373827
0.371581
0.369402
0.367357
0.365407
0.36355
0.361743
0.359995
0.358287
0.356643
0.355043
0.353506
0.352008
0.350568
0.349162
0.347817
0.346502
0.345252
0.373819
0.371579
0.369316
0.367248
0.365263
0.363341
0.361377
0.35944
0.357492
0.355604
0.353735
0.351931
0.350147
0.348431
0.346735
0.345117
0.343521
0.342013
0.373703
0.371517
0.369143
0.367099
0.364996
0.362887
0.360553
0.358207
0.355749
0.353363
0.350949
0.348625
0.346302
0.344079
0.341884
0.339807
0.337777
0.33587
0.373258
0.371906
0.369785
0.367944
0.36563
0.363196
0.360247
0.357292
0.354098
0.351078
0.348045
0.345226
0.342554
0.340078
0.337891
0.335844
0.33419
0.332522
0.375067
0.378118
0.380675
0.384352
0.387897
0.391953
0.39604
0.40062
0.4055
0.410937
0.416797
0.423079
0.430012
0.437086
0.445048
0.452683
0.460836
0.467821
0.448195
0.580685
0.685382
0.765339
0.822397
0.862099
0.886924
0.902573
0.911804
0.91596
0.915125
0.912809
0.907412
0.900787
0.892287
0.883899
0.875791
0.868025
4.25936e-06
3.39151e-05
8.74229e-05
0.000169625
0.000269984
0.000383407
0.000560978
0.000858676
0.00130653
0.00190462
0.0025733
0.00325514
0.00390765
0.0044897
0.00498761
0.00539826
0.00572033
0.00594414
0.00609718
0.00611435
0.00608538
0.00600748
0.00580312
0.00544813
0.00492569
0.00421817
0.00333582
0.00233266
0.00134223
0.000574783
0.000165478
4.59504e-05
3.65799e-05
4.02012e-05
4.66019e-05
5.59319e-05
6.75197e-05
7.71992e-05
8.63683e-05
0.000118569
0.000290193
0.000651032
0.0012867
0.00186576
0.00227382
0.00231422
0.00222853
0.00202344
0.00176261
0.00153985
0.00144388
0.00160853
0.00217608
0.0023307
0.00271021
0.00340567
0.0053553
0.0155029
0.0335676
0.0526037
0.0707359
0.0876999
0.103551
0.118444
0.132555
0.146064
0.159216
0.171452
0.183134
0.194149
0.204717
0.214801
0.224543
0.233936
0.243074
0.251948
0.260623
0.269092
0.277402
0.28555
0.293561
0.301432
0.309179
0.316798
0.324296
0.33167
0.338921
0.346043
0.353035
0.359889
0.3666
0.373157
0.379552
0.385773
0.39181
0.397652
0.403289
0.408715
0.413932
0.418954
0.423814
0.428579
0.43314
0.437532
0.441749
0.445785
0.449642
0.453311
0.456794
0.460084
0.463182
0.466083
0.468786
0.471289
0.47359
0.475688
0.477582
0.479269
0.480749
0.48202
0.483083
0.483935
0.484578
0.485011
0.485235
0.48525
0.485152
0.484751
0.484165
0.483413
0.482448
0.481277
0.479826
0.478134
0.476293
0.474268
0.472051
0.469611
0.467036
0.464281
0.461377
0.458321
0.455124
0.451793
0.448335
0.444758
0.441069
0.437276
0.433383
0.429394
0.425311
0.42114
0.416899
0.412521
0.40814
0.403584
0.399057
0.394373
0.389737
0.385027
0.380341
0.375643
0.370956
0.366281
0.36162
0.35697
0.35233
0.347696
0.343067
0.338444
0.333828
0.329217
0.324604
0.31997
0.315279
0.310451
0.305438
0.299788
0.293065
0.278199
2.08891e-05
1.38446e-05
4.57064e-05
0.000114425
0.000278432
0.000800478
0.00187927
0.00357332
0.00568924
0.0078888
0.00998645
0.01184
0.0133197
0.0143498
0.0149741
0.0152548
0.0152116
0.015025
0.0146585
0.0141408
0.0134265
0.0125272
0.0114629
0.0102193
0.00887759
0.00738487
0.00593729
0.00455583
0.00325267
0.00211878
0.00125721
0.000699584
0.000382892
0.000215351
0.000131991
9.31311e-05
8.33885e-05
0.000124175
0.000227313
0.000415708
0.00189572
0.00403433
0.00744369
0.0101589
0.0117795
0.0118398
0.0114144
0.010278
0.00870546
0.00830475
0.0091266
0.0121966
0.0162914
0.021192
0.0294828
0.04164
0.0586524
0.0828004
0.107381
0.132983
0.158948
0.185021
0.211508
0.237788
0.264097
0.289875
0.315181
0.339648
0.363387
0.386247
0.40834
0.429656
0.450313
0.470366
0.489898
0.508963
0.52764
0.54595
0.563973
0.581734
0.599266
0.616593
0.633731
0.650694
0.667491
0.684126
0.700602
0.716916
0.733066
0.749045
0.764843
0.780449
0.795847
0.81102
0.825946
0.8406
0.854954
0.868975
0.88263
0.895883
0.908699
0.921069
0.933208
0.945041
0.956605
0.967869
0.978834
0.989487
0.999822
1.00983
1.0195
1.02883
1.03781
1.04644
1.05471
1.06261
1.07014
1.07729
1.08406
1.09043
1.09641
1.10199
1.10717
1.11194
1.11629
1.12023
1.12376
1.12688
1.12959
1.13191
1.13386
1.13547
1.13677
1.13769
1.13811
1.13834
1.13822
1.13755
1.13655
1.13517
1.13346
1.1314
1.12903
1.12635
1.12337
1.12011
1.11658
1.1128
1.10877
1.10449
1.09998
1.09524
1.09025
1.08506
1.0796
1.07396
1.06808
1.06204
1.05583
1.04952
1.04314
1.03671
1.03025
1.02377
1.01729
1.01079
1.00428
0.997759
0.991221
0.984671
0.978114
0.971552
0.964977
0.958359
0.951635
0.944673
0.937328
0.928942
0.917879
0.893528
2.48899e-05
1.09006e-05
4.77455e-05
0.000198948
0.000630292
0.00195105
0.00426916
0.00711718
0.0100475
0.0127969
0.0152069
0.0171515
0.018616
0.0196382
0.0202642
0.020583
0.020568
0.020432
0.0201118
0.019623
0.0190034
0.0182569
0.0173714
0.0163398
0.0151254
0.0137633
0.0121351
0.0103183
0.0084303
0.0065403
0.00480682
0.00323245
0.0020545
0.00130396
0.000847275
0.000594328
0.0004576
0.000490296
0.000832347
0.00154931
0.00548244
0.0116556
0.0181463
0.0227906
0.0254049
0.026281
0.0265529
0.0268717
0.0280674
0.032925
0.0430614
0.0593494
0.0754088
0.0938236
0.116875
0.14242
0.171494
0.2019
0.235296
0.27071
0.30758
0.345161
0.382993
0.420319
0.456818
0.492031
0.525857
0.558186
0.589103
0.618687
0.647105
0.674491
0.700995
0.72675
0.751855
0.776409
0.800495
0.82418
0.847519
0.870548
0.893301
0.915802
0.938067
0.960109
0.981936
1.00355
1.02495
1.04614
1.06711
1.08785
1.10836
1.12862
1.14863
1.16836
1.18781
1.20696
1.2258
1.24431
1.2625
1.28035
1.29787
1.31506
1.3319
1.34836
1.36444
1.38011
1.39536
1.41018
1.42455
1.43848
1.45194
1.46493
1.47744
1.48946
1.50099
1.51201
1.52253
1.53253
1.542
1.55095
1.55936
1.56723
1.57455
1.58132
1.58752
1.59316
1.59824
1.60274
1.60668
1.61006
1.61286
1.61511
1.61679
1.61784
1.61829
1.61839
1.6179
1.61681
1.61521
1.6131
1.61051
1.60745
1.60395
1.60002
1.59568
1.59094
1.58583
1.58037
1.57455
1.5684
1.56192
1.55511
1.54797
1.54052
1.53271
1.52463
1.51623
1.50761
1.49875
1.48973
1.48058
1.47132
1.46199
1.45262
1.44321
1.43377
1.4243
1.41481
1.40529
1.39576
1.38622
1.3767
1.36718
1.35766
1.34809
1.33838
1.32836
1.31761
1.30423
1.28158
2.47388e-05
2.37178e-05
0.000155887
0.000748788
0.00212491
0.00533929
0.00946271
0.0136176
0.017399
0.0205704
0.0230222
0.0247816
0.0258811
0.0264652
0.026573
0.0264498
0.0261197
0.0255887
0.0249508
0.0242329
0.0234523
0.0226096
0.0216923
0.020691
0.0195787
0.0183374
0.0169289
0.0153217
0.0135217
0.0115885
0.0095947
0.00769905
0.00586927
0.00431796
0.00305296
0.00225596
0.00174141
0.00157722
0.00344304
0.00720798
0.0187665
0.0310288
0.0400949
0.0457658
0.0489606
0.0508496
0.0558283
0.0681522
0.0839568
0.0999899
0.11666
0.133852
0.153302
0.177733
0.207191
0.24007
0.277439
0.316728
0.358398
0.40088
0.443758
0.486388
0.528401
0.569454
0.609356
0.647961
0.685233
0.721189
0.755906
0.78948
0.82203
0.853681
0.884531
0.914696
0.944257
0.9733
1.00189
1.03008
1.05791
1.08542
1.11264
1.13958
1.16626
1.19268
1.21886
1.2448
1.27049
1.29593
1.32112
1.34605
1.37071
1.3951
1.41919
1.44299
1.46647
1.48964
1.51246
1.53495
1.55707
1.57882
1.60018
1.62113
1.64164
1.66169
1.68126
1.70033
1.71888
1.7369
1.75437
1.77128
1.78761
1.80336
1.81852
1.83307
1.84701
1.86034
1.87303
1.8851
1.89652
1.9073
1.91742
1.92688
1.93567
1.94378
1.95121
1.95795
1.96399
1.96934
1.97398
1.97792
1.98114
1.98366
1.98546
1.98645
1.98681
1.98663
1.98571
1.98411
1.98188
1.97903
1.97558
1.97155
1.96698
1.96187
1.95626
1.95018
1.94363
1.93664
1.92923
1.92141
1.91318
1.90454
1.8955
1.88606
1.87622
1.86602
1.85545
1.84459
1.83344
1.82207
1.81052
1.79883
1.78703
1.77515
1.76321
1.75123
1.7392
1.72713
1.71502
1.7029
1.69079
1.6787
1.66665
1.65465
1.64267
1.63066
1.61849
1.60587
1.59114
1.56993
3.33472e-05
8.07181e-05
0.000551243
0.00209059
0.00599858
0.0119898
0.0178469
0.0228498
0.0266773
0.0292941
0.0308701
0.0316405
0.0317616
0.0315732
0.0310952
0.0304028
0.0296164
0.0287808
0.0279251
0.0270666
0.0262108
0.0253498
0.0244677
0.0235461
0.0225583
0.0214785
0.0202776
0.0189237
0.0173829
0.0156498
0.0137655
0.011822
0.00992869
0.00809259
0.00677744
0.00537966
0.00505043
0.00640441
0.0138813
0.0305626
0.0505833
0.0660474
0.0763776
0.0837753
0.0916182
0.102209
0.114632
0.127264
0.140433
0.155131
0.173055
0.196879
0.225383
0.259302
0.297239
0.337809
0.380457
0.423923
0.468083
0.512237
0.556242
0.599869
0.642972
0.6854
0.727035
0.767791
0.807615
0.8465
0.884467
0.921559
0.957836
0.993373
1.02824
1.06251
1.09624
1.1295
1.16233
1.19478
1.22686
1.25862
1.29007
1.32122
1.35209
1.38269
1.41302
1.44307
1.47285
1.50236
1.53158
1.56051
1.58914
1.61746
1.64547
1.67314
1.70047
1.72743
1.75402
1.78022
1.806
1.83135
1.85623
1.88062
1.90449
1.92782
1.95059
1.97278
1.99435
2.01529
2.03558
2.05521
2.07416
2.09241
2.10997
2.12681
2.14293
2.15832
2.17297
2.18688
2.20004
2.21245
2.22408
2.23494
2.24502
2.2543
2.26279
2.27047
2.27734
2.28338
2.28861
2.293
2.29656
2.29929
2.30116
2.30209
2.30234
2.30185
2.30054
2.29844
2.2956
2.29202
2.28774
2.28279
2.27719
2.27097
2.26416
2.25679
2.24888
2.24045
2.23153
2.22213
2.21225
2.2019
2.19108
2.1798
2.16806
2.15588
2.14328
2.13033
2.11704
2.10348
2.0897
2.07574
2.06163
2.04742
2.03312
2.01875
2.00432
1.98983
1.97531
1.96077
1.94624
1.93176
1.91735
1.90302
1.8888
1.87464
1.86048
1.84609
1.83009
1.80918
2.87666e-05
0.000243759
0.00161306
0.00572667
0.0140997
0.022144
0.0283562
0.0325267
0.03494
0.0360788
0.0363481
0.0361257
0.0355142
0.0346134
0.0335857
0.0325075
0.0314337
0.030401
0.0294296
0.0285238
0.0276753
0.0268673
0.0260782
0.0252822
0.0244484
0.0235441
0.0225396
0.0214095
0.0201314
0.0186865
0.0170894
0.0154082
0.0137452
0.0120177
0.0103399
0.0105207
0.0139848
0.0260773
0.0503348
0.0750951
0.0957013
0.110431
0.120602
0.128627
0.136461
0.145001
0.154674
0.16635
0.183027
0.204946
0.232243
0.265024
0.301928
0.342036
0.383987
0.426912
0.470463
0.51425
0.55821
0.602186
0.646159
0.690061
0.733812
0.777312
0.820454
0.863146
0.905305
0.946881
0.98785
1.02821
1.06798
1.10719
1.14588
1.18408
1.22184
1.25918
1.29615
1.33275
1.36902
1.40496
1.44059
1.47592
1.51095
1.54569
1.58013
1.61428
1.64813
1.68168
1.71491
1.74782
1.7804
1.81264
1.84452
1.87604
1.90717
1.9379
1.9682
1.99805
2.02742
2.0563
2.08463
2.11241
2.13959
2.16616
2.19208
2.21732
2.24186
2.26568
2.28875
2.31105
2.33256
2.35328
2.37318
2.39226
2.41051
2.42791
2.44447
2.46017
2.47501
2.48898
2.50207
2.51427
2.52559
2.53599
2.54549
2.55406
2.56171
2.56842
2.57419
2.57901
2.58288
2.5858
2.58772
2.5886
2.58872
2.58793
2.58622
2.58362
2.58016
2.57587
2.57077
2.56489
2.55827
2.55094
2.54293
2.53428
2.52502
2.51517
2.50476
2.49379
2.4823
2.47026
2.45769
2.4446
2.43098
2.41686
2.40227
2.38727
2.37189
2.35619
2.34022
2.32404
2.30768
2.29118
2.27457
2.25787
2.24108
2.22423
2.20733
2.19042
2.17352
2.15669
2.13996
2.12336
2.10692
2.09065
2.07448
2.05826
2.04081
2.01937
5.20435e-05
0.000770978
0.00447461
0.0142777
0.0252343
0.0328817
0.0373644
0.0396368
0.0405176
0.040491
0.0399935
0.0389756
0.0377145
0.0363355
0.0349326
0.0335748
0.0323078
0.0311584
0.0301343
0.0292281
0.0284226
0.0276925
0.0270087
0.0263362
0.0256381
0.0248696
0.0239936
0.0229861
0.0218234
0.0204767
0.0189143
0.0171355
0.0153382
0.0149089
0.0169385
0.0254892
0.0447146
0.0724338
0.100519
0.123534
0.139327
0.148422
0.153655
0.158159
0.163867
0.172855
0.186984
0.206472
0.231592
0.261964
0.296821
0.335099
0.37546
0.41703
0.459187
0.501701
0.544495
0.587532
0.630847
0.674455
0.718372
0.762573
0.806998
0.851558
0.896141
0.940644
0.984975
1.02906
1.07284
1.11628
1.15937
1.2021
1.24447
1.2865
1.3282
1.36958
1.41064
1.4514
1.49186
1.53201
1.57187
1.61142
1.65066
1.6896
1.72823
1.76653
1.80452
1.84217
1.87948
1.91643
1.95302
1.98923
2.02504
2.06045
2.09543
2.12995
2.164
2.19755
2.23055
2.26299
2.29483
2.32604
2.35658
2.38642
2.41552
2.44387
2.47142
2.49815
2.52403
2.54903
2.57314
2.59634
2.6186
2.63993
2.66031
2.67973
2.69819
2.71568
2.73219
2.74771
2.76225
2.77578
2.78831
2.79981
2.81029
2.81974
2.82814
2.83549
2.84178
2.847
2.85116
2.85426
2.85622
2.85704
2.85699
2.85589
2.85377
2.85065
2.84656
2.84153
2.83559
2.82877
2.82112
2.81265
2.80342
2.79347
2.78283
2.77153
2.75961
2.74707
2.73393
2.72019
2.70586
2.69094
2.67543
2.65936
2.64277
2.6257
2.60821
2.59036
2.57221
2.5538
2.53519
2.51641
2.49749
2.47845
2.45931
2.44008
2.42081
2.40151
2.38224
2.36305
2.34399
2.32511
2.30643
2.288
2.26976
2.25159
2.23245
2.20989
0.000517938
0.00235182
0.0108034
0.0258439
0.0358234
0.0412649
0.0439258
0.0448951
0.0447889
0.0440301
0.0426651
0.0410112
0.0392237
0.0374254
0.0357083
0.0341339
0.0327359
0.0315248
0.0304925
0.0296177
0.0288701
0.0282143
0.027609
0.0270095
0.0263563
0.0256211
0.0247904
0.0238811
0.0229244
0.0220272
0.0214398
0.0216482
0.0237913
0.0297749
0.0427993
0.0670077
0.0954751
0.12224
0.14418
0.158609
0.165615
0.168952
0.171354
0.177116
0.188055
0.204478
0.226581
0.25393
0.285867
0.321404
0.359443
0.399034
0.439372
0.480133
0.521196
0.562588
0.604369
0.646611
0.689387
0.732752
0.776736
0.821321
0.866447
0.912034
0.957985
1.0042
1.05057
1.09702
1.14347
1.18985
1.23613
1.28226
1.32824
1.37404
1.41965
1.46506
1.51025
1.55521
1.59992
1.64436
1.68853
1.7324
1.77596
1.8192
1.86212
1.90469
1.94691
1.98877
2.03025
2.07134
2.11202
2.15229
2.19212
2.2315
2.2704
2.3088
2.34667
2.38398
2.42069
2.45677
2.49218
2.52688
2.56084
2.59402
2.62638
2.65788
2.6885
2.71819
2.74692
2.77467
2.8014
2.8271
2.85176
2.87535
2.89787
2.91931
2.93966
2.95892
2.97709
2.99416
3.01011
3.02495
3.03866
3.05123
3.06266
3.07294
3.08205
3.09
3.09678
3.10237
3.10677
3.11
3.11197
3.11272
3.11245
3.111
3.10843
3.10475
3.09999
3.09419
3.08738
3.07959
3.07086
3.06122
3.05074
3.03944
3.02739
3.0146
3.00112
2.98697
2.97215
2.95668
2.94055
2.92377
2.90634
2.8883
2.86967
2.85051
2.83089
2.81087
2.79051
2.76987
2.74899
2.72791
2.70667
2.68527
2.66375
2.64213
2.62045
2.59875
2.57709
2.55552
2.53411
2.5129
2.49195
2.47129
2.45091
2.43066
2.40963
2.38551
0.00205788
0.00579056
0.0213197
0.0361834
0.0440999
0.0479281
0.049422
0.0494356
0.0485789
0.046947
0.0449171
0.0426933
0.0404407
0.0382865
0.0363193
0.0345899
0.0331165
0.0318903
0.0308838
0.0300582
0.0293698
0.0287709
0.0282041
0.027605
0.0269435
0.0262008
0.0253799
0.0246728
0.0241196
0.0243438
0.0262944
0.0316809
0.0434514
0.0629462
0.087818
0.11327
0.136912
0.155778
0.167676
0.173789
0.176546
0.180184
0.187863
0.200884
0.219549
0.243481
0.272028
0.304294
0.339365
0.376379
0.414515
0.453247
0.49231
0.531692
0.571462
0.61173
0.652604
0.694187
0.736569
0.779814
0.823942
0.868941
0.914771
0.961364
1.00864
1.05649
1.10482
1.15354
1.20256
1.25179
1.30119
1.35068
1.40023
1.44979
1.49933
1.5488
1.59817
1.6474
1.69644
1.74528
1.79387
1.84217
1.89018
1.93785
1.98518
2.03214
2.07871
2.12489
2.17065
2.21597
2.26084
2.30526
2.34919
2.39262
2.43552
2.47787
2.51963
2.56076
2.60123
2.641
2.68003
2.71828
2.7557
2.79225
2.82789
2.86258
2.89628
2.92895
2.96055
2.99105
3.02041
3.04862
3.07565
3.10148
3.12612
3.14955
3.17176
3.19276
3.21254
3.2311
3.24842
3.2645
3.27933
3.29291
3.30522
3.31626
3.32602
3.3345
3.34168
3.34756
3.35215
3.35544
3.35735
3.35797
3.3574
3.35555
3.35246
3.34816
3.34268
3.33606
3.32832
3.3195
3.30964
3.29879
3.28699
3.27431
3.26078
3.24646
3.23138
3.21557
3.19903
3.18179
3.16383
3.14516
3.12578
3.10573
3.08504
3.06377
3.042
3.01979
2.9972
2.97431
2.95115
2.92777
2.90418
2.88042
2.85651
2.83248
2.80838
2.78426
2.76018
2.73622
2.71243
2.68887
2.66561
2.64267
2.62006
2.59764
2.57459
2.54855
0.0045505
0.0113499
0.0320075
0.0452395
0.0514898
0.0541361
0.0546678
0.053885
0.0521479
0.0498213
0.047174
0.0444267
0.0417597
0.0393064
0.0371499
0.0353258
0.0338319
0.0326402
0.0317067
0.0309775
0.0304084
0.0299547
0.0295812
0.029318
0.029227
0.0293987
0.0301098
0.0316057
0.0343814
0.039463
0.0485303
0.0633536
0.0822033
0.103381
0.12487
0.144118
0.159357
0.169654
0.175783
0.180342
0.186478
0.196589
0.211836
0.232264
0.257298
0.286108
0.317867
0.351828
0.387288
0.423672
0.460569
0.497802
0.535369
0.573374
0.611948
0.651227
0.691342
0.732406
0.774509
0.817706
0.862031
0.907485
0.954042
1.00165
1.05023
1.0997
1.14997
1.20093
1.25249
1.30457
1.35708
1.40994
1.46309
1.51645
1.56996
1.62356
1.67718
1.73077
1.78425
1.83758
1.89071
1.94357
1.99614
2.04837
2.10022
2.15168
2.20272
2.2533
2.30342
2.35306
2.4022
2.45082
2.49891
2.54645
2.5934
2.63974
2.68541
2.7304
2.77465
2.81812
2.86078
2.90256
2.94343
2.98333
3.02223
3.06007
3.09682
3.13243
3.16685
3.20006
3.232
3.26265
3.29199
3.32
3.34667
3.372
3.39599
3.41864
3.43993
3.45987
3.47846
3.49567
3.51152
3.52598
3.53906
3.55075
3.56104
3.56993
3.57741
3.58347
3.58813
3.59137
3.59313
3.59352
3.59255
3.59021
3.58652
3.58152
3.57524
3.56772
3.55898
3.54907
3.53803
3.5259
3.51274
3.4986
3.48355
3.46764
3.4509
3.43338
3.41509
3.39604
3.37621
3.35561
3.33426
3.31217
3.2894
3.266
3.24206
3.21764
3.19283
3.16767
3.14223
3.11654
3.09062
3.06448
3.03817
3.01172
2.98519
2.95865
2.93215
2.90578
2.8796
2.85368
2.82807
2.80281
2.77792
2.75326
2.72811
2.70028
0.00710302
0.0187329
0.0417867
0.0532126
0.0583108
0.0601208
0.0599259
0.0583887
0.0559642
0.0530047
0.0498059
0.0466144
0.0436231
0.040965
0.0387115
0.0368804
0.0354489
0.0343717
0.0335894
0.0330209
0.0326885
0.0325044
0.0324814
0.0327922
0.0336675
0.0354827
0.0388876
0.0446548
0.0535005
0.065686
0.0807202
0.097247
0.114685
0.131696
0.146874
0.15914
0.168362
0.175499
0.182451
0.19133
0.204083
0.221348
0.243007
0.268443
0.296877
0.327582
0.360011
0.393649
0.428081
0.463023
0.498333
0.534015
0.570169
0.606937
0.644475
0.682932
0.722442
0.763114
0.805041
0.84829
0.892905
0.9389
0.986263
1.03495
1.08492
1.13607
1.18833
1.24159
1.29577
1.35076
1.40645
1.46276
1.51959
1.57684
1.63442
1.69223
1.75019
1.80821
1.86622
1.92414
1.98189
2.03942
2.09664
2.15353
2.21001
2.26606
2.32164
2.3767
2.43124
2.48523
2.53865
2.5915
2.64377
2.69541
2.7464
2.79669
2.84625
2.89503
2.943
2.99011
3.03631
3.08154
3.12576
3.16892
3.21096
3.25183
3.2915
3.32992
3.36704
3.40281
3.43719
3.47014
3.50164
3.53167
3.56022
3.58729
3.61288
3.637
3.65965
3.6808
3.70048
3.71865
3.73533
3.75051
3.76418
3.77634
3.78699
3.79612
3.80372
3.80981
3.81437
3.81741
3.81889
3.8189
3.81741
3.81445
3.81004
3.80424
3.79706
3.78854
3.77873
3.76766
3.75536
3.74189
3.72729
3.71164
3.69501
3.67746
3.65903
3.63976
3.61967
3.59877
3.57705
3.5545
3.53115
3.50703
3.48216
3.45664
3.43053
3.40392
3.37688
3.34948
3.32178
3.2938
3.26556
3.23707
3.20838
3.17953
3.15059
3.12163
3.09273
3.06397
3.03541
3.00713
2.97916
2.95157
2.92439
2.89743
2.87016
2.84035
0.00903958
0.0270414
0.0501904
0.0608369
0.0652267
0.0663739
0.0655415
0.0633689
0.0603488
0.0568755
0.0532752
0.0498101
0.0466736
0.0439899
0.0418165
0.0401567
0.0389714
0.0382283
0.0378976
0.0378724
0.0382579
0.0391527
0.0407328
0.0433472
0.0473763
0.0530756
0.0606617
0.0701856
0.0815195
0.0943665
0.108111
0.121937
0.135157
0.147106
0.157465
0.166505
0.175067
0.184521
0.196231
0.211425
0.230248
0.252551
0.277777
0.305301
0.33461
0.365253
0.396894
0.429255
0.462144
0.495465
0.529218
0.563491
0.598419
0.634161
0.670878
0.708716
0.747808
0.788273
0.830207
0.873688
0.918772
0.965487
1.01384
1.06379
1.1153
1.16831
1.22273
1.27847
1.33543
1.39348
1.45252
1.51244
1.5731
1.63439
1.69616
1.7583
1.8207
1.88325
1.94585
2.00841
2.07085
2.13308
2.19503
2.25661
2.31777
2.37844
2.43858
2.49812
2.55704
2.61533
2.67299
2.73
2.78635
2.842
2.89691
2.95104
3.00434
3.05677
3.10828
3.15883
3.20838
3.25685
3.30421
3.35038
3.39533
3.43899
3.48134
3.52231
3.56185
3.59993
3.63649
3.67148
3.70488
3.73666
3.76682
3.79537
3.82231
3.84764
3.87137
3.89348
3.91397
3.93285
3.95011
3.96574
3.97975
3.99214
4.00289
4.01202
4.01952
4.0254
4.02966
4.0323
4.03331
4.03275
4.03059
4.02684
4.02158
4.01483
4.00663
3.99701
3.98602
3.97369
3.96006
3.94518
3.9291
3.91188
3.89362
3.87437
3.8542
3.83315
3.81124
3.78847
3.76485
3.74035
3.71501
3.68886
3.66194
3.63432
3.60607
3.5773
3.54808
3.51849
3.48857
3.45836
3.42785
3.39707
3.36605
3.33485
3.30355
3.27223
3.24097
3.20986
3.17897
3.14836
3.11808
3.08817
3.0587
3.02944
3.00006
2.96824
0.0101813
0.0344834
0.0581346
0.0683811
0.0723206
0.0730396
0.0716952
0.0690012
0.0655378
0.061761
0.0580265
0.0545947
0.0516373
0.0492553
0.0475013
0.0464036
0.0459382
0.0458959
0.0464441
0.0476287
0.0495696
0.0524276
0.0563693
0.0614913
0.0678185
0.0754116
0.0841898
0.093984
0.104527
0.11546
0.126379
0.136944
0.147022
0.156714
0.166393
0.176723
0.188545
0.202671
0.219571
0.239343
0.261694
0.286218
0.312498
0.340152
0.368877
0.39844
0.428679
0.45948
0.49079
0.522621
0.555047
0.58819
0.622199
0.657227
0.693437
0.730979
0.769987
0.810571
0.852834
0.896866
0.942734
0.99048
1.04012
1.09165
1.14503
1.20021
1.25712
1.31565
1.3757
1.43713
1.49982
1.56362
1.62837
1.69391
1.76006
1.82665
1.89355
1.96062
2.02779
2.09495
2.16201
2.22889
2.29548
2.3617
2.42747
2.49269
2.55729
2.6212
2.68436
2.74679
2.80849
2.86948
2.9297
2.98913
3.04771
3.10539
3.16214
3.21789
3.27262
3.32627
3.3788
3.43014
3.48024
3.52905
3.57649
3.62254
3.66714
3.71025
3.75181
3.79177
3.83009
3.86672
3.90161
3.93474
3.96612
3.99576
4.02365
4.04981
4.07423
4.09692
4.11787
4.13709
4.15456
4.17031
4.18431
4.19659
4.20713
4.21595
4.22305
4.22843
4.23211
4.2341
4.23438
4.23304
4.22997
4.22525
4.21896
4.2111
4.20173
4.19089
4.1786
4.16491
4.14987
4.13351
4.11589
4.09707
4.07712
4.05615
4.03421
4.01136
3.98762
3.96299
3.93747
3.91105
3.88376
3.85563
3.82671
3.79706
3.76675
3.73589
3.70457
3.67286
3.64082
3.60845
3.57577
3.54278
3.50953
3.47608
3.44251
3.40892
3.3754
3.34204
3.30889
3.27602
3.24349
3.21134
3.17964
3.14812
3.1167
3.08297
0.0107912
0.0410247
0.0659656
0.0761732
0.0797853
0.0801743
0.0783722
0.0752577
0.0715324
0.0677306
0.0642234
0.0612345
0.058881
0.0571992
0.0563392
0.0560934
0.0564613
0.0575508
0.0593771
0.0619677
0.0653753
0.0696477
0.0748049
0.0808302
0.0876686
0.0952324
0.103396
0.112013
0.120928
0.13003
0.139299
0.148837
0.158845
0.169648
0.181694
0.195427
0.211187
0.229121
0.24916
0.27108
0.294607
0.31946
0.345392
0.37221
0.399773
0.427991
0.456817
0.486242
0.516302
0.54707
0.578645
0.611149
0.644729
0.679542
0.715749
0.753505
0.792952
0.834183
0.87731
0.922438
0.969647
1.01899
1.0705
1.12418
1.18001
1.23793
1.29789
1.35976
1.42341
1.48869
1.55543
1.62344
1.69255
1.76254
1.83319
1.90426
1.97556
2.04698
2.11845
2.18993
2.26134
2.33259
2.40357
2.47416
2.54428
2.6138
2.6826
2.75057
2.81765
2.88389
2.9493
3.01387
3.07756
3.14033
3.20211
3.26286
3.32254
3.38109
3.43847
3.49466
3.54959
3.6032
3.65545
3.70626
3.7556
3.8034
3.84964
3.89425
3.9372
3.97844
4.01791
4.05557
4.09137
4.12529
4.15734
4.18751
4.21582
4.24228
4.26688
4.28964
4.31055
4.32962
4.34686
4.36225
4.37582
4.38756
4.39749
4.4056
4.41192
4.41645
4.41922
4.42023
4.41954
4.41711
4.41287
4.40697
4.39943
4.39029
4.37959
4.36736
4.35364
4.33849
4.32194
4.30404
4.28484
4.26438
4.24273
4.22002
4.19632
4.17167
4.14612
4.11966
4.09228
4.06398
4.03481
4.0048
3.97399
3.94243
3.91016
3.87732
3.84402
3.81032
3.77627
3.74189
3.70717
3.67212
3.63679
3.60122
3.56552
3.5298
3.49417
3.45868
3.42341
3.38842
3.35376
3.31946
3.28563
3.25196
3.21856
3.18316
0.0110434
0.0475046
0.0736066
0.0839501
0.0873718
0.0875223
0.0852984
0.0817859
0.0779134
0.0743631
0.0714672
0.0693214
0.06794
0.0673093
0.0672048
0.0678282
0.0691794
0.0712272
0.0739613
0.0773875
0.0814977
0.0862685
0.091665
0.0976423
0.10415
0.111147
0.118608
0.126539
0.134994
0.144081
0.15393
0.164735
0.176717
0.190108
0.205094
0.221765
0.240096
0.259974
0.281266
0.30379
0.327368
0.351836
0.377087
0.403043
0.429663
0.456946
0.484916
0.513623
0.543141
0.573564
0.605006
0.637604
0.671511
0.706893
0.743926
0.782807
0.823599
0.866336
0.911196
0.958313
1.00777
1.05962
1.11391
1.17062
1.22976
1.29126
1.35504
1.42098
1.48889
1.5586
1.62985
1.70241
1.77606
1.85057
1.92562
2.0009
2.07616
2.15136
2.22649
2.30156
2.37663
2.45163
2.5264
2.6008
2.67468
2.7479
2.82031
2.89178
2.96224
3.03172
3.10024
3.16778
3.23428
3.29969
3.36395
3.42701
3.48884
3.54938
3.60862
3.66651
3.723
3.77804
3.83157
3.88355
3.93391
3.98261
4.02962
4.07489
4.11838
4.16005
4.19985
4.23772
4.27364
4.30758
4.33954
4.36952
4.39754
4.4236
4.44771
4.46988
4.49013
4.50844
4.52484
4.53933
4.55192
4.56261
4.57142
4.57836
4.58345
4.58671
4.58816
4.58785
4.58585
4.58193
4.57628
4.56893
4.55991
4.54926
4.53703
4.52324
4.50795
4.49119
4.47302
4.45349
4.43263
4.4105
4.38717
4.36276
4.33734
4.31095
4.28363
4.2554
4.22624
4.19618
4.16524
4.13347
4.10091
4.0676
4.03353
3.99889
3.96378
3.92827
3.89239
3.85617
3.81959
3.78267
3.74547
3.70797
3.67035
3.63272
3.59515
3.55773
3.52052
3.48357
3.44694
3.41067
3.37485
3.33922
3.30394
3.26713
0.0110534
0.0539078
0.0810442
0.0914971
0.0947362
0.0945346
0.0918335
0.0881506
0.0845923
0.0816939
0.0796113
0.0784204
0.0779581
0.0779475
0.0786254
0.0799898
0.0819976
0.0846183
0.0878281
0.0916088
0.0959424
0.100813
0.106214
0.112151
0.118653
0.125775
0.133601
0.142228
0.151756
0.162314
0.174041
0.187072
0.201466
0.217263
0.234461
0.253003
0.272767
0.293645
0.315544
0.338352
0.361948
0.386269
0.411308
0.437069
0.463586
0.490906
0.519093
0.548227
0.578403
0.60973
0.64233
0.67634
0.711913
0.74922
0.788424
0.829675
0.873063
0.918722
0.966784
1.01734
1.07043
1.12609
1.18433
1.24514
1.30849
1.37433
1.44254
1.51301
1.58553
1.65987
1.73569
1.81257
1.89027
1.96854
2.04716
2.12586
2.20437
2.2827
2.3608
2.4388
2.51676
2.59453
2.67205
2.74923
2.82583
2.90167
2.97663
3.05063
3.12355
3.19534
3.26598
3.33545
3.40368
3.47061
3.53619
3.60039
3.66317
3.7245
3.78438
3.84276
3.8996
3.95487
4.00849
4.06042
4.11062
4.15904
4.20566
4.25044
4.29335
4.33435
4.3734
4.41044
4.44543
4.47836
4.50924
4.53808
4.56489
4.58969
4.61249
4.6333
4.65213
4.66899
4.68389
4.69685
4.70787
4.71697