/*--------------------------------*- C++ -*----------------------------------*\
| =========                 |                                                 |
| \\      /  F ield         | OpenFOAM: The Open Source CFD Toolbox           |
|  \\    /   O peration     | Version:  4.x                                   |
|   \\  /    A nd           | Web:      www.OpenFOAM.org                      |
|    \\/     M anipulation  |                                                 |
\*---------------------------------------------------------------------------*/
FoamFile
{
    version     2.0;
    format      ascii;
    class       volScalarField;
    location    "406";
    object      nut;
}
// * * * * * * * * * * * * * * * * * * * * * * * * * * * * * * * * * * * * * //

dimensions      [0 2 -1 0 0 0 0];

internalField   nonuniform List<scalar> 
12225
(
5.34336e-06
8.14434e-06
1.0025e-05
1.11473e-05
1.16591e-05
1.18267e-05
1.1867e-05
1.17399e-05
1.15658e-05
1.13845e-05
1.12084e-05
1.10394e-05
1.08959e-05
1.07498e-05
1.06525e-05
1.05188e-05
1.04799e-05
1.03532e-05
0.000252457
5.78925e-05
4.43322e-05
3.66135e-05
3.35351e-05
3.24213e-05
3.21121e-05
3.25663e-05
3.32029e-05
3.30097e-05
3.26398e-05
3.28355e-05
3.27471e-05
3.31605e-05
3.32296e-05
3.37966e-05
3.40195e-05
3.47668e-05
0.000625111
0.000323386
0.000223975
0.000164147
0.00013368
0.000113766
0.000102127
9.24559e-05
8.61887e-05
7.92067e-05
7.45851e-05
6.95608e-05
6.63905e-05
6.28366e-05
6.0743e-05
5.81874e-05
5.68692e-05
5.50429e-05
0.000921411
0.000595813
0.00049407
0.000430078
0.00037388
0.000324274
0.000293827
0.000263669
0.000245205
0.000223713
0.000210556
0.000194718
0.000185439
0.000173535
0.000166979
0.000157874
0.000153308
0.000146047
0.000891023
0.000771585
0.000712416
0.000665896
0.000625238
0.000574691
0.000539636
0.000499415
0.000473442
0.000442534
0.00042301
0.000398579
0.000383809
0.000364258
0.000353204
0.000337354
0.000329283
0.000315959
0.00086448
0.000834703
0.000815516
0.000791856
0.000773405
0.000744261
0.000721886
0.000691969
0.00067055
0.000643468
0.000624888
0.000601241
0.000585776
0.000565338
0.000552893
0.000535175
0.000525555
0.000509921
0.000854032
0.000848936
0.000842856
0.000835084
0.000828615
0.000818122
0.000809074
0.000795154
0.000784148
0.000768735
0.000757201
0.000741791
0.000730796
0.000716134
0.000706311
0.000692649
0.000684295
0.00067156
0.000852199
0.000850013
0.000847834
0.000844934
0.000842041
0.000837784
0.000833603
0.000828685
0.000823347
0.000816328
0.000810222
0.000801847
0.000795365
0.000786657
0.000780317
0.000771631
0.000765779
0.000757112
0.000851742
0.000850269
0.000849103
0.000847587
0.000846194
0.000844296
0.000842397
0.000840087
0.000837756
0.00083492
0.00083165
0.000828091
0.000824491
0.000820318
0.000816553
0.000812007
0.000808244
0.000803324
0.000851618
0.000850455
0.000849498
0.000848451
0.000847516
0.000846396
0.000845356
0.000844133
0.000842965
0.000841579
0.000840228
0.000838548
0.000837059
0.000835131
0.000833548
0.00083133
0.000829665
0.000827182
0.000851575
0.000850565
0.000849665
0.000848766
0.000847962
0.000847088
0.000846305
0.000845449
0.000844687
0.000843812
0.000843047
0.000842122
0.000841339
0.000840361
0.000839558
0.000838531
0.000837707
0.000836619
0.000851556
0.000850622
0.000849753
0.000848913
0.000848147
0.000847365
0.00084665
0.000845922
0.000845263
0.000844575
0.000843955
0.000843297
0.000842708
0.000842073
0.000841505
0.000840889
0.00084034
0.000839731
0.000851548
0.000850653
0.000849802
0.000848992
0.000848237
0.000847499
0.000846804
0.000846127
0.000845493
0.000844871
0.000844288
0.000843713
0.000843174
0.000842642
0.000842142
0.000841647
0.000841182
0.000840715
0.000851544
0.000850668
0.000849829
0.000849035
0.000848285
0.000847565
0.000846881
0.000846224
0.0008456
0.000845001
0.00084443
0.000843881
0.000843359
0.000842856
0.000842376
0.000841913
0.000841472
0.000841044
0.00085154
0.000850672
0.000849842
0.000849055
0.000848309
0.000847596
0.000846917
0.000846268
0.000845649
0.000845058
0.000844493
0.000843953
0.000843437
0.000842942
0.000842469
0.000842015
0.000841582
0.000841164
0.000851537
0.000850674
0.000849848
0.000849065
0.00084832
0.00084761
0.000846934
0.000846287
0.000845671
0.000845082
0.00084452
0.000843982
0.000843468
0.000842975
0.000842505
0.000842054
0.000841623
0.000841208
0.000851538
0.000850676
0.000849855
0.000849072
0.000848328
0.000847618
0.000846941
0.000846296
0.00084568
0.000845092
0.00084453
0.000843993
0.000843479
0.000842988
0.000842518
0.000842068
0.000841637
0.000841225
0.000851538
0.000850676
0.000849854
0.000849071
0.000848326
0.000847615
0.000846938
0.000846292
0.000845674
0.000845085
0.000844522
0.000843984
0.000843469
0.000842976
0.000842505
0.000842054
0.000841623
0.00084121
0.000851537
0.000850672
0.000849849
0.000849065
0.000848318
0.000847606
0.000846927
0.000846279
0.000845661
0.000845071
0.000844506
0.000843967
0.000843451
0.000842957
0.000842485
0.000842033
0.000841601
0.000841186
0.000851537
0.000850674
0.000849849
0.000849066
0.000848319
0.000847607
0.000846928
0.000846279
0.00084566
0.000845068
0.000844502
0.000843961
0.000843443
0.000842946
0.000842472
0.000842016
0.000841582
0.000841163
0.000851538
0.000850673
0.000849843
0.000849058
0.000848309
0.000847595
0.000846911
0.000846258
0.000845633
0.000845035
0.000844461
0.000843912
0.000843383
0.000842877
0.000842388
0.00084192
0.000841468
0.000841034
0.00085154
0.000850671
0.000849824
0.000849037
0.000848276
0.000847555
0.00084685
0.000846181
0.000845521
0.000844891
0.000844264
0.000843667
0.000843067
0.000842496
0.000841916
0.000841366
0.000840804
0.000840277
0.000851531
0.000850665
0.000849759
0.000848967
0.000848151
0.000847379
0.000846561
0.00084575
0.00084486
0.000843969
0.00084301
0.000842072
0.000841064
0.000840087
0.000839016
0.00083802
0.0008369
0.000835909
0.000851505
0.000850677
0.000849462
0.000848531
0.000847296
0.000846024
0.000844426
0.000842649
0.00084037
0.000837948
0.000835257
0.000832529
0.000829689
0.000826712
0.00082367
0.000820596
0.000817416
0.000814602
0.000851471
0.0008504
0.000847919
0.000844477
0.000840145
0.000835416
0.000830054
0.000823004
0.000814298
0.000806007
0.000797027
0.000788948
0.000780244
0.000772539
0.000764136
0.000756957
0.000749002
0.000742513
0.000849764
0.000844053
0.000827618
0.000810013
0.000799587
0.000781967
0.000759533
0.000737811
0.000714902
0.000695185
0.000675412
0.000658898
0.000642027
0.000628117
0.000613543
0.000601861
0.000589262
0.000579526
0.000815942
0.000792784
0.000728474
0.000684104
0.000641169
0.000596749
0.00055358
0.00051832
0.000485838
0.000460601
0.000436987
0.000418842
0.000401037
0.000387489
0.000373557
0.00036321
0.00035205
0.000344002
0.000613242
0.000538001
0.000427938
0.000360294
0.000309351
0.00027255
0.000243404
0.000222218
0.000204569
0.000191668
0.000180252
0.000171967
0.000164119
0.000158553
0.0001529
0.000149041
0.000144823
0.000142013
0.000204832
0.000137265
0.000104385
8.60257e-05
7.47288e-05
6.76326e-05
6.29754e-05
5.99762e-05
5.79384e-05
5.66888e-05
5.58941e-05
5.55797e-05
5.54679e-05
5.56895e-05
5.59667e-05
5.58158e-05
5.52366e-05
5.46643e-05
6.20795e-06
8.10227e-06
9.64443e-06
1.08707e-05
1.17909e-05
1.2472e-05
1.2943e-05
1.32826e-05
1.35275e-05
1.36947e-05
1.37832e-05
1.38446e-05
1.38539e-05
1.38388e-05
1.3789e-05
1.37355e-05
1.36817e-05
1.36283e-05
3.71564e-10
1.35928e-08
3.49977e-08
6.78167e-08
1.0779e-07
1.52849e-07
2.23238e-07
3.4089e-07
5.17072e-07
7.50881e-07
1.01028e-06
1.2726e-06
1.52153e-06
1.7417e-06
1.92849e-06
2.08126e-06
2.19999e-06
2.28145e-06
2.33624e-06
2.34028e-06
2.32707e-06
2.29606e-06
2.21753e-06
2.08319e-06
1.88602e-06
1.61873e-06
1.28405e-06
9.01186e-07
5.20425e-07
2.23435e-07
6.43811e-08
1.78676e-08
1.42084e-08
1.55967e-08
1.80585e-08
2.16476e-08
2.61002e-08
2.98052e-08
3.33045e-08
4.56538e-08
1.11531e-07
2.49442e-07
4.90925e-07
7.09054e-07
8.61422e-07
8.75463e-07
8.42335e-07
7.64536e-07
6.65936e-07
5.81615e-07
5.449e-07
6.05761e-07
8.16256e-07
8.72428e-07
1.01139e-06
1.26515e-06
1.96927e-06
5.45158e-06
1.10067e-05
1.61711e-05
2.05865e-05
2.43133e-05
2.58128e-05
2.70805e-05
2.82248e-05
2.9307e-05
3.0384e-05
3.13466e-05
3.22651e-05
3.31165e-05
3.3935e-05
3.47097e-05
3.54595e-05
3.61795e-05
3.68816e-05
3.75615e-05
3.82275e-05
3.88768e-05
3.95156e-05
4.01425e-05
4.07607e-05
4.13697e-05
4.19716e-05
4.25662e-05
4.31545e-05
4.37366e-05
4.43132e-05
4.4884e-05
4.54495e-05
4.60093e-05
4.65635e-05
4.71116e-05
4.76535e-05
4.81887e-05
4.87168e-05
4.92375e-05
4.97508e-05
5.0257e-05
5.07576e-05
5.12556e-05
5.17558e-05
5.22652e-05
5.27695e-05
5.32746e-05
5.3781e-05
5.42893e-05
5.48003e-05
5.53142e-05
5.58318e-05
5.63532e-05
5.68794e-05
5.74105e-05
5.79474e-05
5.84906e-05
5.90406e-05
5.95982e-05
6.0164e-05
6.07387e-05
6.13232e-05
6.19181e-05
6.25244e-05
6.31429e-05
6.37747e-05
6.44209e-05
6.50826e-05
6.57612e-05
6.64709e-05
6.71869e-05
6.79272e-05
6.86963e-05
6.94888e-05
7.03045e-05
7.0583e-05
7.03165e-05
7.0035e-05
6.97369e-05
6.94203e-05
6.90832e-05
6.87334e-05
6.83661e-05
6.79846e-05
6.75883e-05
6.71781e-05
6.67546e-05
6.63183e-05
6.58699e-05
6.54098e-05
6.49388e-05
6.4457e-05
6.39649e-05
6.34624e-05
6.29501e-05
6.24305e-05
6.18918e-05
6.13592e-05
6.07974e-05
6.02476e-05
5.96699e-05
5.91041e-05
5.85217e-05
5.79432e-05
5.73598e-05
5.67753e-05
5.61896e-05
5.5603e-05
5.50151e-05
5.44258e-05
5.38348e-05
5.32418e-05
5.2647e-05
5.20505e-05
5.1452e-05
5.08508e-05
5.02449e-05
4.96306e-05
4.89995e-05
4.83462e-05
4.76225e-05
4.67808e-05
4.50545e-05
1.82222e-09
6.92974e-09
4.32333e-08
1.2689e-07
3.51984e-07
1.23487e-06
2.84985e-06
5.24549e-06
8.37893e-06
1.14767e-05
1.48978e-05
1.89234e-05
2.26392e-05
2.52645e-05
2.72636e-05
2.8609e-05
2.9117e-05
2.91653e-05
2.83524e-05
2.70617e-05
2.3897e-05
2.02439e-05
1.62326e-05
1.26133e-05
9.59033e-06
7.08198e-06
5.13755e-06
3.64929e-06
2.46398e-06
1.58264e-06
9.53237e-07
5.58729e-07
3.41592e-07
2.2668e-07
1.66847e-07
1.34357e-07
1.31097e-07
2.29017e-07
4.61474e-07
9.10064e-07
4.28498e-06
9.06455e-06
1.63901e-05
2.15604e-05
2.41078e-05
2.3298e-05
2.15348e-05
1.80335e-05
1.35582e-05
1.17107e-05
1.13964e-05
1.23873e-05
1.21872e-05
1.20723e-05
1.4132e-05
1.83961e-05
2.46616e-05
3.38601e-05
4.34028e-05
5.37129e-05
6.57615e-05
7.87329e-05
9.31165e-05
0.000108052
0.000123752
0.000139525
0.000155362
0.000170791
0.000185767
0.000200062
0.000213671
0.000226547
0.00023862
0.000250216
0.000261035
0.00027153
0.000281611
0.000291205
0.000300406
0.000309327
0.000317967
0.00032638
0.00033458
0.000342596
0.000350442
0.000358136
0.00036569
0.000373113
0.000380414
0.0003876
0.000394675
0.000401639
0.000408493
0.00041523
0.000421841
0.000428306
0.000434596
0.000440668
0.000446458
0.000451872
0.000456785
0.000461038
0.000465295
0.000469361
0.000473338
0.000477176
0.000480897
0.000484488
0.000487952
0.000491285
0.000494487
0.000497557
0.000500493
0.000503294
0.000505959
0.000508489
0.000510881
0.000513136
0.000515251
0.000517226
0.000519059
0.000520748
0.000522293
0.000523692
0.000524944
0.000526048
0.000527004
0.000527828
0.000528511
0.000529072
0.000529538
0.000529955
0.000530407
0.0005308
0.000530994
0.000531165
0.00053119
0.000531017
0.000530737
0.000530332
0.000529811
0.000529174
0.000528428
0.000527575
0.000526619
0.000525567
0.000524422
0.000523188
0.000521868
0.000520462
0.000518963
0.000517424
0.000515656
0.000514167
0.000512156
0.000510534
0.000508394
0.000506515
0.000504293
0.000502182
0.000499984
0.000497772
0.000495543
0.000493304
0.000491057
0.000488803
0.000486538
0.00048426
0.000481966
0.000479655
0.000477327
0.000474979
0.000472602
0.000470175
0.000467669
0.000464984
0.000462021
0.000458387
0.000453403
0.000438541
2.17121e-09
5.32545e-09
5.78335e-08
3.16931e-07
9.45615e-07
2.66175e-06
5.88082e-06
1.03354e-05
1.59948e-05
2.25947e-05
2.99162e-05
3.69724e-05
4.38894e-05
5.02114e-05
5.63289e-05
6.12156e-05
6.45072e-05
6.67993e-05
6.76043e-05
6.74725e-05
6.49879e-05
6.15786e-05
5.60848e-05
4.93575e-05
4.13789e-05
3.33702e-05
2.56574e-05
1.89997e-05
1.36387e-05
9.51875e-06
6.49356e-06
4.1734e-06
2.66786e-06
1.75505e-06
1.23059e-06
9.72625e-07
8.60844e-07
1.07667e-06
2.11366e-06
4.33714e-06
1.53732e-05
3.18919e-05
4.73735e-05
5.70661e-05
6.11227e-05
5.96263e-05
5.12572e-05
3.76211e-05
2.81457e-05
2.63857e-05
2.89976e-05
3.36787e-05
3.9402e-05
4.915e-05
6.38913e-05
7.95974e-05
9.81173e-05
0.000119424
0.000145498
0.000175555
0.000209508
0.000245305
0.000282987
0.000320494
0.000357742
0.000393416
0.000427512
0.000459528
0.000489597
0.000517696
0.00054404
0.00056877
0.000591895
0.000614214
0.000635481
0.000655749
0.000675226
0.00069399
0.000712174
0.000729848
0.000747062
0.000763874
0.000780315
0.000796423
0.000812219
0.000827727
0.000842962
0.000857935
0.000872655
0.000887126
0.000901347
0.000915314
0.000929016
0.000942437
0.000955554
0.000968337
0.000980749
0.000992746
0.00100428
0.00101533
0.00102586
0.00103603
0.00104602
0.00105571
0.00106516
0.00107432
0.00108321
0.00109182
0.00110014
0.00110818
0.00111592
0.00112337
0.00113052
0.00113737
0.00114393
0.00115018
0.00115614
0.00116179
0.00116715
0.00117219
0.00117693
0.00118136
0.00118548
0.00118929
0.00119278
0.00119595
0.00119882
0.00120138
0.00120365
0.00120563
0.00120736
0.00120886
0.00121016
0.00121106
0.00121157
0.00121193
0.00121194
0.00121163
0.00121105
0.00121018
0.00120904
0.00120763
0.00120597
0.00120406
0.00120192
0.00119956
0.00119699
0.00119422
0.00119126
0.00118812
0.00118479
0.00118129
0.00117754
0.00117384
0.0011696
0.00116557
0.00116095
0.00115647
0.00115158
0.00114673
0.00114172
0.00113667
0.00113157
0.00112644
0.00112128
0.00111611
0.00111091
0.00110568
0.0011004
0.00109509
0.00108974
0.00108435
0.00107889
0.00107333
0.00106759
0.00106149
0.00105477
0.00104666
0.00103526
0.00100874
2.15803e-09
1.17539e-08
1.65668e-07
7.76399e-07
2.22948e-06
6.03722e-06
1.23895e-05
2.10376e-05
3.18513e-05
4.40424e-05
5.64976e-05
6.89291e-05
8.02662e-05
8.9904e-05
9.71694e-05
0.000102635
0.000106277
0.000108088
0.00010843
0.000107465
0.000105244
0.000101544
9.61222e-05
8.996e-05
8.18174e-05
7.21027e-05
6.11972e-05
4.97622e-05
3.89956e-05
2.96675e-05
2.2061e-05
1.61527e-05
1.15453e-05
8.2654e-06
5.90324e-06
4.52289e-06
3.76318e-06
3.77441e-06
9.01328e-06
1.80852e-05
4.15442e-05
6.06113e-05
7.21977e-05
7.66037e-05
7.42228e-05
5.83503e-05
5.11885e-05
5.29464e-05
5.65633e-05
6.14181e-05
7.05898e-05
8.49755e-05
0.000102961
0.000122363
0.000151256
0.000181023
0.000221794
0.00026555
0.000314862
0.000367223
0.000421892
0.000476769
0.000531331
0.000584053
0.000634783
0.000682831
0.000728285
0.000771075
0.000811355
0.000849399
0.000885139
0.000919471
0.000952123
0.000983363
0.00101339
0.00104231
0.00107029
0.00109743
0.00112384
0.00114959
0.00117473
0.00119932
0.0012234
0.00124701
0.00127017
0.0012929
0.00131522
0.00133714
0.00135867
0.0013798
0.00140055
0.00142089
0.00144083
0.00146033
0.0014794
0.001498
0.00151611
0.00153372
0.00155081
0.0015674
0.00158351
0.00159924
0.0016146
0.00162954
0.00164409
0.00165821
0.0016719
0.00168517
0.00169799
0.00171036
0.00172229
0.00173377
0.0017448
0.00175538
0.00176551
0.00177519
0.00178442
0.0017932
0.00180153
0.00180941
0.00181683
0.0018238
0.00183031
0.00183636
0.00184195
0.00184707
0.00185174
0.00185596
0.00185973
0.00186306
0.00186595
0.00186842
0.00187044
0.00187186
0.00187283
0.00187347
0.00187361
0.00187328
0.00187252
0.00187133
0.00186973
0.00186773
0.00186535
0.0018626
0.00185951
0.00185609
0.00185237
0.00184835
0.00184406
0.0018395
0.00183467
0.00182955
0.00182414
0.00181854
0.00181247
0.0018063
0.00179964
0.00179288
0.00178574
0.00177851
0.00177111
0.00176359
0.00175601
0.00174837
0.00174068
0.00173294
0.00172515
0.0017173
0.00170939
0.00170141
0.00169337
0.00168528
0.0016771
0.00166878
0.00166022
0.00165121
0.00164138
0.00162971
0.00161359
0.00158245
2.90894e-09
3.75452e-08
3.86757e-07
1.61517e-06
5.62838e-06
1.41474e-05
2.70105e-05
4.3566e-05
6.20445e-05
8.04401e-05
9.72596e-05
0.000111075
0.000121657
0.000129981
0.000135987
0.000139884
0.0001421
0.000142794
0.000142116
0.000140256
0.000137369
0.000133157
0.000127999
0.000122009
0.00011447
0.000105441
9.48603e-05
8.28155e-05
6.97685e-05
5.68361e-05
4.52359e-05
3.5378e-05
2.73963e-05
2.10084e-05
1.69672e-05
1.3517e-05
1.29645e-05
1.62009e-05
3.1138e-05
5.62864e-05
8.18999e-05
9.77512e-05
9.45157e-05
8.71659e-05
8.28845e-05
8.23817e-05
8.51411e-05
9.1445e-05
0.000102819
0.000120466
0.000134323
0.000160387
0.000193575
0.000233062
0.000282524
0.000335271
0.000395773
0.00045749
0.000523131
0.000589306
0.000655673
0.000720788
0.000784197
0.000845169
0.000903586
0.000959269
0.001012
0.00106214
0.00111012
0.00115583
0.00119938
0.00124119
0.00128134
0.00132001
0.00135738
0.00139356
0.0014287
0.00146288
0.00149619
0.00152871
0.00156048
0.00159157
0.001622
0.00165182
0.00168106
0.00170972
0.00173784
0.00176543
0.00179249
0.00181903
0.00184506
0.00187056
0.00189553
0.00191997
0.00194387
0.00196721
0.00198999
0.00201222
0.00203389
0.00205503
0.00207564
0.00209576
0.00211537
0.00213446
0.00215301
0.00217101
0.00218846
0.00220534
0.00222164
0.00223737
0.00225252
0.00226709
0.00228109
0.00229451
0.00230736
0.00231965
0.00233137
0.00234253
0.00235313
0.00236317
0.00237265
0.00238156
0.00238992
0.00239771
0.00240493
0.00241159
0.00241769
0.00242322
0.00242819
0.00243264
0.00243647
0.00243974
0.00244239
0.00244432
0.00244578
0.00244672
0.00244706
0.00244683
0.00244606
0.00244476
0.00244295
0.00244064
0.00243787
0.00243465
0.00243102
0.00242699
0.0024226
0.00241787
0.0024128
0.0024074
0.00240167
0.00239558
0.00238914
0.00238235
0.00237511
0.00236755
0.00235954
0.00235125
0.00234261
0.00233376
0.00232471
0.00231552
0.00230622
0.00229683
0.00228737
0.00227783
0.00226819
0.00225846
0.00224863
0.00223871
0.00222872
0.00221866
0.00220851
0.00219821
0.00218764
0.00217658
0.00216467
0.00215089
0.00213228
0.00210112
2.50938e-09
8.741e-08
8.69276e-07
4.18291e-06
1.44201e-05
3.20117e-05
5.46661e-05
7.94996e-05
0.000102633
0.000121525
0.000135974
0.000147066
0.000155215
0.000160779
0.000164387
0.00016637
0.000167047
0.000166636
0.000165262
0.000162998
0.000159857
0.000155622
0.000150619
0.000144844
0.000137702
0.000129247
0.000119349
0.000107958
9.51857e-05
8.06966e-05
6.5606e-05
5.22355e-05
4.17241e-05
3.3667e-05
2.84287e-05
2.72943e-05
3.19368e-05
4.96294e-05
7.86035e-05
9.91504e-05
0.000108902
0.000111362
0.000110578
0.000110433
0.000113531
0.000121564
0.000135793
0.00014521
0.000162127
0.000190954
0.000226314
0.000271451
0.000325061
0.000383596
0.000449605
0.000517465
0.000589546
0.000661954
0.000735757
0.000808812
0.000880832
0.000951038
0.00101915
0.00108474
0.00114757
0.00120811
0.00126637
0.00132202
0.00137548
0.00142681
0.00147617
0.00152378
0.00156975
0.00161424
0.00165738
0.00169928
0.00174003
0.00177974
0.00181846
0.00185627
0.0018932
0.00192932
0.00196465
0.00199923
0.0020331
0.00206627
0.00209877
0.00213062
0.00216182
0.0021924
0.00222236
0.0022517
0.00228042
0.00230852
0.00233601
0.00236287
0.00238912
0.00241475
0.00243977
0.00246419
0.00248801
0.00251123
0.00253383
0.00255582
0.00257716
0.00259785
0.00261789
0.00263725
0.00265594
0.00267394
0.00269126
0.0027079
0.00272387
0.00273917
0.00275382
0.00276782
0.00278119
0.00279392
0.00280602
0.00281751
0.00282836
0.0028386
0.00284821
0.0028572
0.00286556
0.0028733
0.00288041
0.00288689
0.00289278
0.00289803
0.00290261
0.00290652
0.00290971
0.00291211
0.00291403
0.0029153
0.00291591
0.00291589
0.00291526
0.00291403
0.00291224
0.0029099
0.00290704
0.00290369
0.00289988
0.00289565
0.00289104
0.00288608
0.00288075
0.00287507
0.00286903
0.0028626
0.00285575
0.00284847
0.0028407
0.00283249
0.00282381
0.00281474
0.00280531
0.0027956
0.00278566
0.00277555
0.00276531
0.00275496
0.0027445
0.00273391
0.00272319
0.00271233
0.00270133
0.00269022
0.00267902
0.00266775
0.0026564
0.00264491
0.00263318
0.00262101
0.00260807
0.00259342
0.00257456
0.00254517
4.53976e-09
2.18509e-07
2.26453e-06
1.16431e-05
3.25147e-05
6.12363e-05
9.11566e-05
0.000116306
0.000136131
0.000151093
0.000162602
0.000170611
0.00017611
0.000179629
0.000181651
0.000182529
0.000182482
0.000181622
0.000179963
0.000177562
0.000174361
0.000170201
0.000165391
0.000159665
0.000152722
0.000139448
0.000124165
0.000109676
9.55954e-05
8.14916e-05
6.72741e-05
5.38759e-05
4.2872e-05
3.77795e-05
3.9249e-05
5.26124e-05
7.8285e-05
0.000103985
0.000121927
0.000131868
0.000135605
0.000137292
0.000141164
0.000150363
0.000159577
0.000167282
0.000185006
0.000213805
0.000250393
0.000296295
0.000350712
0.000412758
0.000480193
0.000551504
0.000626502
0.000702548
0.000780234
0.000857695
0.000934953
0.00101098
0.00108551
0.00115789
0.00122798
0.00129636
0.00136238
0.00142607
0.00148756
0.00154683
0.00160406
0.00165933
0.00171279
0.00176455
0.00181472
0.00186343
0.00191077
0.00195683
0.00200169
0.00204542
0.00208808
0.00212972
0.00217038
0.00221011
0.00224893
0.00228689
0.00232401
0.00236032
0.00239585
0.00243063
0.00246467
0.002498
0.00253063
0.00256257
0.00259383
0.00262441
0.00265432
0.00268356
0.00271212
0.00274001
0.00276721
0.00279371
0.00281954
0.00284469
0.00286916
0.00289293
0.00291599
0.00293832
0.00295993
0.0029808
0.00300095
0.00302035
0.003039
0.00305691
0.00307407
0.00309052
0.00310625
0.0031213
0.00313566
0.00314936
0.0031624
0.00317478
0.00318651
0.00319759
0.00320802
0.00321781
0.00322694
0.00323542
0.00324325
0.00325042
0.003257
0.00326285
0.003268
0.00327245
0.0032761
0.00327894
0.00328127
0.00328287
0.00328378
0.00328402
0.00328361
0.00328257
0.00328092
0.0032787
0.00327592
0.00327262
0.00326886
0.00326466
0.00326009
0.00325518
0.00324996
0.00324446
0.0032386
0.00323233
0.00322561
0.00321839
0.00321064
0.00320237
0.00319358
0.00318435
0.00317471
0.00316476
0.00315456
0.00314418
0.00313365
0.00312299
0.00311218
0.0031012
0.00309003
0.00307868
0.00306715
0.00305548
0.00304371
0.00303186
0.00301995
0.00300793
0.0029957
0.00298313
0.00296991
0.00295521
0.00293719
0.00291058
4.5157e-08
6.17477e-07
5.95045e-06
2.68076e-05
6.04679e-05
9.62503e-05
0.000126431
0.000149905
0.000166966
0.000178948
0.00018617
0.000190141
0.000191948
0.000192503
0.000192327
0.000191692
0.000190704
0.000189366
0.00018759
0.000185106
0.00018175
0.000177441
0.000172287
0.000165276
0.000148558
0.000133294
0.000119283
0.00010604
9.36038e-05
8.18136e-05
7.13875e-05
6.47406e-05
6.55801e-05
7.39412e-05
8.40636e-05
0.000110275
0.000139566
0.000155139
0.000162633
0.000167094
0.00017137
0.000180382
0.000181712
0.000187209
0.000204536
0.000231254
0.000266698
0.000311176
0.000364182
0.000426305
0.00049274
0.000564966
0.000640291
0.000717818
0.000796914
0.000876419
0.000956157
0.00103525
0.00111343
0.00118999
0.0012646
0.00133791
0.00140929
0.00147863
0.0015459
0.00161113
0.00167436
0.00173565
0.00179508
0.00185273
0.00190868
0.00196304
0.00201589
0.00206731
0.00211737
0.00216614
0.00221369
0.00226005
0.00230529
0.00234944
0.00239252
0.00243459
0.00247565
0.00251575
0.00255492
0.00259317
0.00263054
0.00266707
0.0027028
0.00273776
0.00277197
0.00280545
0.00283822
0.00287027
0.00290162
0.00293227
0.00296221
0.00299144
0.00301993
0.00304771
0.00307479
0.00310116
0.00312681
0.00315173
0.0031759
0.00319932
0.00322196
0.00324383
0.0032649
0.00328517
0.00330464
0.00332331
0.00334119
0.0033583
0.00337466
0.00339031
0.00340526
0.00341953
0.00343313
0.00344608
0.00345837
0.00347002
0.00348101
0.00349136
0.00350107
0.00351012
0.00351852
0.00352629
0.00353347
0.00353987
0.00354557
0.00355056
0.00355473
0.00355811
0.00356091
0.00356296
0.00356431
0.00356496
0.00356495
0.0035643
0.00356302
0.00356115
0.00355872
0.00355576
0.00355233
0.00354848
0.00354428
0.00353978
0.00353497
0.00352985
0.00352439
0.00351853
0.00351218
0.00350529
0.00349782
0.00348976
0.00348114
0.00347202
0.00346246
0.00345256
0.00344241
0.00343208
0.00342159
0.00341095
0.00340013
0.00338909
0.00337781
0.00336629
0.00335455
0.00334264
0.00333063
0.00331854
0.0033064
0.00329417
0.00328178
0.00326911
0.00325594
0.00324149
0.00322466
0.00320109
1.79121e-07
1.54103e-06
1.43392e-05
4.78223e-05
8.8309e-05
0.000123836
0.000151521
0.000172226
0.000185862
0.00019359
0.000197673
0.000199176
0.000199063
0.000198085
0.000196727
0.000195226
0.000193595
0.000191692
0.000189252
0.000186218
0.000182467
0.000177826
0.000169997
0.000153808
0.000139143
0.000125575
0.00011229
0.000100086
8.95462e-05
8.3174e-05
8.28906e-05
8.46939e-05
9.40746e-05
0.00011484
0.000141789
0.000166128
0.000185747
0.000198388
0.000203323
0.000202946
0.000202597
0.000206178
0.000221279
0.00024531
0.000278274
0.000320017
0.00037045
0.000429495
0.000493168
0.000563301
0.000636948
0.00071397
0.000792624
0.000872317
0.00095249
0.00103252
0.00111208
0.00119071
0.00126758
0.00134331
0.00141771
0.00149032
0.00156113
0.0016301
0.00169724
0.00176257
0.00182613
0.00188796
0.00194813
0.00200667
0.00206366
0.00211918
0.00217328
0.00222603
0.00227748
0.00232768
0.00237663
0.00242441
0.00247104
0.00251654
0.00256095
0.00260428
0.00264654
0.00268776
0.00272796
0.0027672
0.00280555
0.00284299
0.00287954
0.00291527
0.0029502
0.00298438
0.00301781
0.00305051
0.00308249
0.00311375
0.00314429
0.00317412
0.00320326
0.00323169
0.00325941
0.00328641
0.00331268
0.0033382
0.00336296
0.00338695
0.00341015
0.00343254
0.00345412
0.00347487
0.00349477
0.00351384
0.00353208
0.00354952
0.00356618
0.00358212
0.00359735
0.00361192
0.00362583
0.0036391
0.00365175
0.00366376
0.00367515
0.00368591
0.00369605
0.00370557
0.00371445
0.00372277
0.00373044
0.00373739
0.00374366
0.00374922
0.00375394
0.00375792
0.00376125
0.00376383
0.0037657
0.00376688
0.00376739
0.00376726
0.0037665
0.00376515
0.00376323
0.00376078
0.00375787
0.00375457
0.00375096
0.0037471
0.00374301
0.00373866
0.00373399
0.00372893
0.00372338
0.00371724
0.00371046
0.00370304
0.003695
0.00368641
0.00367736
0.00366797
0.00365833
0.00364853
0.00363857
0.00362845
0.00361812
0.00360751
0.00359659
0.00358538
0.00357391
0.00356224
0.00355047
0.00353863
0.00352674
0.00351477
0.00350268
0.00349034
0.00347764
0.00346375
0.00344805
0.00342675
3.95024e-07
3.41352e-06
2.71598e-05
7.20835e-05
0.000117153
0.000152951
0.000177905
0.00019298
0.00020178
0.000205627
0.000205837
0.000204013
0.000201253
0.000198254
0.000195375
0.000192716
0.000190155
0.000187469
0.000184354
0.000180738
0.0001764
0.000171259
0.000157906
0.00014507
0.000134366
0.00012581
0.000120711
0.000119305
0.000111481
0.000107393
0.000111534
0.000126394
0.000146233
0.000167533
0.000187429
0.000203049
0.000213325
0.000217503
0.000219232
0.000223454
0.000236076
0.000257183
0.000286759
0.000325202
0.00037206
0.000427184
0.000487066
0.000552792
0.000622701
0.000696818
0.000773363
0.000851652
0.00093069
0.00101
0.00108916
0.00116778
0.00124515
0.00132129
0.00139667
0.0014704
0.00154261
0.00161317
0.00168206
0.00174929
0.00181491
0.00187894
0.00194143
0.00200244
0.00206198
0.00212004
0.00217673
0.00223211
0.00228621
0.00233907
0.00239074
0.00244132
0.00249094
0.00253948
0.00258686
0.00263307
0.00267814
0.00272206
0.00276484
0.00280649
0.00284702
0.00288645
0.00292476
0.00296206
0.00299846
0.00303404
0.00306886
0.00310298
0.00313641
0.00316916
0.00320123
0.00323263
0.00326335
0.0032934
0.00332278
0.00335148
0.00337948
0.00340677
0.00343334
0.00345917
0.00348426
0.00350857
0.0035321
0.00355483
0.00357673
0.00359779
0.00361799
0.00363732
0.00365578
0.0036734
0.00369023
0.00370632
0.00372172
0.00373647
0.0037506
0.00376413
0.00377705
0.00378938
0.00380112
0.00381227
0.00382283
0.0038328
0.0038422
0.00385107
0.00385927
0.00386682
0.00387372
0.00387991
0.00388529
0.00388995
0.0038939
0.00389711
0.00389962
0.00390144
0.0039026
0.00390312
0.00390302
0.00390233
0.00390108
0.0038993
0.00389706
0.00389446
0.00389162
0.00388861
0.00388544
0.00388208
0.00387845
0.00387444
0.00386991
0.00386476
0.0038589
0.00385234
0.00384511
0.00383729
0.00382898
0.00382035
0.0038115
0.00380251
0.00379339
0.0037841
0.00377454
0.00376465
0.00375439
0.00374375
0.00373282
0.00372168
0.00371043
0.00369913
0.00368779
0.00367635
0.0036648
0.00365302
0.00364101
0.00362771
0.00361339
0.00359427
6.14927e-07
6.69727e-06
4.21536e-05
9.32247e-05
0.000139192
0.000173543
0.00019582
0.000207764
0.00021211
0.000211657
0.000208428
0.000203814
0.000198747
0.000193787
0.000189163
0.000184916
0.000180722
0.000176356
0.000171863
0.000166815
0.000161148
0.00015446
0.000146512
0.000137779
0.000129171
0.00012202
0.000118148
0.000119474
0.000126768
0.000139415
0.000155567
0.000172531
0.000189495
0.000204806
0.000217107
0.000225064
0.000230121
0.000236988
0.000248338
0.000267207
0.00029336
0.000327977
0.000370512
0.000420763
0.000478288
0.000538958
0.000603839
0.000672906
0.000745217
0.000820138
0.000896515
0.000973645
0.0010509
0.00112789
0.00120406
0.00127893
0.00135325
0.00142613
0.0014977
0.00156777
0.00163634
0.0017034
0.00176886
0.00183283
0.00189544
0.00195674
0.00201681
0.00207571
0.00213358
0.0021907
0.00224671
0.00230154
0.00235518
0.00240761
0.00245889
0.00250903
0.00255799
0.00260585
0.00265262
0.00269831
0.00274296
0.00278653
0.00282901
0.00287037
0.0029106
0.00294971
0.00298773
0.0030247
0.00306072
0.00309592
0.00313042
0.00316428
0.00319753
0.00323016
0.00326217
0.00329354
0.00332429
0.0033544
0.00338387
0.0034127
0.00344086
0.00346835
0.00349515
0.00352124
0.00354661
0.00357123
0.00359508
0.00361815
0.0036404
0.00366181
0.00368236
0.003702
0.00372073
0.00373856
0.00375557
0.00377184
0.00378744
0.00380242
0.00381681
0.00383063
0.0038439
0.00385661
0.00386878
0.00388039
0.00389145
0.00390197
0.00391198
0.00392143
0.0039303
0.00393858
0.00394623
0.00395318
0.00395934
0.00396477
0.00396947
0.00397342
0.00397668
0.00397927
0.00398121
0.00398252
0.00398322
0.00398332
0.00398287
0.0039819
0.00398047
0.0039787
0.00397679
0.0039748
0.00397275
0.00397057
0.00396817
0.00396541
0.0039621
0.00395808
0.0039533
0.00394774
0.00394147
0.00393456
0.00392716
0.00391948
0.00391163
0.00390368
0.00389563
0.00388739
0.00387884
0.00386986
0.00386043
0.00385056
0.00384035
0.00382994
0.00381944
0.0038089
0.00379831
0.0037876
0.00377675
0.00376565
0.00375447
0.00374159
0.00372881
0.0037106
7.80969e-07
1.18014e-05
5.87986e-05
0.000116772
0.00016326
0.000194158
0.000211241
0.000218354
0.000218828
0.00021516
0.000209187
0.000202197
0.000195013
0.000188124
0.000181454
0.00017515
0.00016936