/*--------------------------------*- C++ -*----------------------------------*\
| =========                 |                                                 |
| \\      /  F ield         | OpenFOAM: The Open Source CFD Toolbox           |
|  \\    /   O peration     | Version:  4.x                                   |
|   \\  /    A nd           | Web:      www.OpenFOAM.org                      |
|    \\/     M anipulation  |                                                 |
\*---------------------------------------------------------------------------*/
FoamFile
{
    version     2.0;
    format      ascii;
    class       volScalarField;
    location    "406";
    object      omega;
}
// * * * * * * * * * * * * * * * * * * * * * * * * * * * * * * * * * * * * * //

dimensions      [0 0 -1 0 0 0 0];

internalField   nonuniform List<scalar> 
12225
(
38640
41460.7
43113.7
43940.8
44187.8
44137.1
43979.1
43702.3
43404
43116.4
42848.5
42600.5
42385.8
42181.1
42026.5
41854.3
41767.9
41613.5
559.405
6668.8
9036.32
11379.8
12850.5
13789.8
14411.7
14818.9
15082.1
15316.5
15538.5
15780.2
15998.2
16215.8
16398.9
16560
16671.3
16755.3
597.317
1149.29
1653.58
2244.75
2729.62
3161.54
3472.95
3781
4008.19
4319.32
4549.45
4846.95
5051.14
5318.25
5483.85
5718.09
5838.12
6034.7
406.123
622.009
745.95
851.73
973.801
1112.24
1216.5
1339.97
1425.89
1543.65
1622.65
1733.32
1801.33
1902.52
1957.59
2048.22
2089.22
2171.71
419.94
481.008
517.896
550.72
583.456
630.494
667.255
715.43
749.355
795.037
825.569
868.644
895.263
935.319
957.511
994.26
1011.53
1045.8
432.658
445.032
452.877
463.683
472.324
488.042
500.54
519.111
532.752
551.798
565.01
583.624
595.661
613.44
623.813
640.636
648.949
664.969
437.821
437.696
438.348
439.935
441.103
444.441
447.241
452.789
456.966
463.822
468.685
476.096
481.052
488.575
493.189
500.61
504.593
511.872
438.71
437.154
435.79
434.864
434.113
434.118
434.231
434.755
435.619
437.397
438.812
441.492
443.275
446.338
448.219
451.482
453.26
456.712
438.921
437.017
435.123
433.504
431.97
430.779
429.715
428.923
428.243
427.867
427.802
427.922
428.15
428.707
429.14
430.007
430.555
431.726
438.973
436.912
434.898
433.043
431.265
429.682
428.176
426.849
425.592
424.515
423.506
422.72
421.914
421.377
420.738
420.457
419.965
419.912
438.989
436.848
434.793
432.86
431.004
429.294
427.648
426.135
424.672
423.347
422.054
420.911
419.773
418.794
417.795
416.961
416.085
415.387
438.995
436.811
434.732
432.765
430.882
429.119
427.431
425.847
424.325
422.904
421.533
420.259
419.026
417.884
416.775
415.751
414.751
413.837
438.998
436.791
434.696
432.709
430.814
429.024
427.318
425.703
424.161
422.701
421.306
419.985
418.721
417.524
416.378
415.293
414.251
413.268
438.998
436.779
434.675
432.675
430.773
428.968
427.252
425.622
424.068
422.592
421.184
419.845
418.567
417.351
416.189
415.083
414.024
413.019
439
436.774
434.663
432.657
430.749
428.937
427.213
425.575
424.014
422.529
421.114
419.766
418.48
417.255
416.085
414.969
413.903
412.887
439.001
436.771
434.656
432.645
430.734
428.918
427.19
425.546
423.981
422.491
421.071
419.718
418.428
417.197
416.023
414.902
413.832
412.811
439
436.769
434.651
432.638
430.725
428.906
427.176
425.53
423.962
422.469
421.046
419.69
418.396
417.163
415.985
414.862
413.789
412.765
439
436.769
434.651
432.637
430.724
428.905
427.174
425.526
423.958
422.463
421.039
419.682
418.388
417.153
415.974
414.85
413.776
412.75
439.001
436.771
434.654
432.641
430.729
428.91
427.179
425.532
423.964
422.47
421.046
419.689
418.394
417.159
415.981
414.856
413.782
412.757
439.001
436.771
434.655
432.644
430.732
428.914
427.184
425.538
423.97
422.477
421.054
419.698
418.405
417.172
415.994
414.872
413.799
412.776
439
436.773
434.661
432.652
430.743
428.927
427.201
425.558
423.995
422.506
421.088
419.736
418.449
417.221
416.051
414.935
413.871
412.855
439
436.777
434.675
432.67
430.768
428.958
427.245
425.612
424.067
422.595
421.204
419.876
418.622
417.425
416.298
415.219
414.204
413.229
439.005
436.785
434.715
432.716
430.845
429.064
427.408
425.847
424.413
423.066
421.832
420.664
419.599
418.587
417.684
416.805
416.043
415.274
439.019
436.789
434.875
432.948
431.291
429.763
428.492
427.4
426.638
426.03
425.627
425.317
425.127
425.075
425.111
425.232
425.458
425.561
439.037
436.948
435.658
435.011
434.933
435.173
435.806
437.416
439.995
442.481
445.46
448.073
451.15
453.787
456.937
459.493
462.617
464.978
439.909
440.232
446.24
453.385
456.815
464.65
475.788
487.17
500.057
511.524
523.732
534.121
545.378
554.723
565.135
573.417
582.969
590.159
458.002
468.623
506.735
536.613
569.267
608.107
651.312
691.092
732.237
767.178
803.11
832.354
863.517
887.969
915.212
935.564
959.458
976.359
608.663
691.274
864.108
1021.23
1181.93
1332.59
1480.04
1607.85
1730.95
1831.7
1930.88
2007.52
2087.23
2144.89
2209.88
2253.37
2307.57
2341.49
1831.09
2754.66
3646.84
4467.87
5190.73
5795.32
6288.8
6679.65
6998.81
7249
7456.91
7612.11
7752.46
7848.64
7952.01
8015.58
8107.63
8160.63
20972.6
22175.9
23094.8
23776.8
24250.7
24574.7
24775
24900.6
24974.7
25007.6
25002.8
24979.9
24940.8
24886.9
24818.4
24750.8
24685.3
24622.4
11463.3
2495.07
2497.96
2501.22
2504.73
2508.41
2512.92
2518.92
2526.79
2536.52
2547.11
2557.86
2568.24
2577.77
2586.28
2593.75
2600.16
2605.42
2609.82
2612.66
2615.04
2616.43
2616.93
2615.29
2611.68
2605.85
2597.89
2588.43
2579.1
2572.49
2570.29
2571.71
2574.53
2577.54
2580.61
2583.75
2586.94
2590.13
2593.3
2597.13
2601.9
2609.95
2620.98
2631.34
2639.62
2643.43
2645.66
2646.63
2646.81
2647.54
2649.82
2655.38
2665.93
2671.52
2679.68
2691.92
2719.44
2843.75
3049.74
3252.95
3436.04
3599.64
3746.77
3880.58
4003.86
4118.98
4228.52
4328.58
4422.53
4509.88
4592.61
4670.7
4745.34
4816.68
4885.42
4951.73
5016.05
5078.43
5139.25
5198.53
5256.51
5313.19
5368.72
5423.1
5476.43
5528.69
5579.94
5630.17
5679.39
5727.57
5774.72
5820.8
5865.77
5909.6
5952.25
5993.66
6033.81
6072.69
6110.32
6146.8
6182.34
6217.33
6251.17
6284.07
6316
6346.95
6376.93
6405.91
6433.9
6460.88
6486.86
6511.82
6535.76
6558.68
6580.57
6601.43
6621.26
6640.05
6657.79
6674.5
6690.15
6704.76
6718.32
6730.82
6742.29
6752.71
6762.59
6770.99
6778.4
6785.01
6790.54
6795.02
6798.04
6799.75
6800.78
6800.81
6799.91
6797.76
6794.9
6791.1
6786.49
6781.08
6774.89
6767.97
6760.35
6752.07
6743.16
6733.66
6723.59
6712.97
6701.79
6690.06
6677.8
6665.19
6651.65
6638.18
6623.61
6609.25
6594.08
6579.22
6564.02
6548.9
6533.75
6518.65
6503.6
6488.58
6473.58
6458.58
6443.57
6428.55
6413.54
6398.53
6383.46
6368.2
6352.5
6335.8
6317.73
6295.09
6264.65
6174.73
11463.5
1997.86
1057.2
901.76
791.036
648.227
659.428
681.217
678.994
661.966
637.498
612.393
588.345
567.984
549.234
533.218
522.43
515.165
517.011
522.539
561.848
618.813
706.164
810.2
925.682
1042.77
1155.67
1248.42
1320.09
1338.77
1318.88
1252.1
1120.91
950.021
791.092
693.162
636.082
542.209
492.58
456.79
442.411
445.067
454.158
471.181
488.62
508.19
530.045
569.938
642.08
709.157
800.832
938.31
1336.76
1755.42
2086.25
2263.53
2378.28
2445.37
2474.07
2475.82
2417.03
2349.98
2271.44
2200.68
2134.08
2077.58
2028.69
1988.67
1956.14
1930.64
1911.07
1896.54
1887.15
1879.84
1876.76
1874.42
1873.65
1874.8
1877.37
1880.64
1884.68
1889.19
1894.11
1899.31
1904.71
1910.24
1915.84
1921.44
1927.02
1932.52
1937.91
1943.16
1948.25
1953.18
1957.96
1962.62
1967.24
1971.95
1976.96
1982.6
1989.34
1997.82
2005.63
2013.47
2020.98
2028.33
2035.43
2042.34
2049.02
2055.48
2061.73
2067.77
2073.59
2079.19
2084.57
2089.74
2094.69
2099.42
2103.94
2108.23
2112.31
2116.17
2119.82
2123.26
2126.49
2129.52
2132.36
2134.94
2137.31
2139.43
2141.23
2142.58
2143.21
2143.35
2143.36
2143.11
2142.78
2142.2
2141.45
2140.49
2139.36
2138.05
2136.58
2134.95
2133.17
2131.24
2129.17
2126.96
2124.61
2122.14
2119.58
2116.71
2114.31
2110.33
2107.96
2103.61
2100.88
2096.75
2093.68
2089.93
2086.35
2082.71
2079.04
2075.34
2071.62
2067.89
2064.14
2060.38
2056.62
2052.87
2049.15
2045.46
2041.84
2038.3
2034.85
2031.62
2028.76
2026.54
2024.42
2037.5
11463.6
2046.89
825.569
627.731
666.542
732.998
725.946
688.623
628.169
566.369
508.317
463.9
424.158
391.111
359.749
336.238
318.849
305.871
297.493
290.83
292.414
296.482
309.734
331.051
365.534
412.442
472.968
543.076
618.118
687.096
740.245
774.536
770.093
742.975
688.512
611.055
531.572
455.38
393.793
357.219
356.624
365.472
383.048
399.373
415.638
440.762
518.032
652.631
838.149
1096.8
1351.01
1512.46
1647.58
1743.41
1793.31
1789.26
1747.84
1690.61
1617.18
1542.03
1468.1
1407.07
1353.4
1311.47
1276.95
1250.66
1230.04
1214.7
1203.24
1195.08
1189.44
1185.88
1184.32
1183.22
1183.13
1184
1185.52
1187.6
1190.04
1192.78
1195.75
1198.89
1202.16
1205.53
1208.95
1212.42
1215.89
1219.37
1222.83
1226.27
1229.67
1233.04
1236.39
1239.72
1243.06
1246.42
1249.86
1253.41
1257.11
1261.02
1265.15
1269.33
1273.3
1277.21
1280.97
1284.63
1288.17
1291.58
1294.88
1298.06
1301.12
1304.06
1306.87
1309.57
1312.14
1314.58
1316.91
1319.1
1321.17
1323.12
1324.94
1326.63
1328.2
1329.64
1330.95
1332.13
1333.18
1334.09
1334.85
1335.45
1335.87
1336.06
1336.01
1335.89
1335.69
1335.39
1334.96
1334.4
1333.72
1332.94
1332.06
1331.08
1330.01
1328.85
1327.6
1326.27
1324.85
1323.34
1321.75
1320.08
1318.31
1316.45
1314.58
1312.37
1310.45
1308.06
1306.03
1303.64
1301.48
1299.12
1296.79
1294.41
1292.01
1289.57
1287.1
1284.61
1282.11
1279.59
1277.07
1274.56
1272.07
1269.61
1267.21
1264.9
1262.75
1260.85
1259.39
1258.87
1259.8
1270.48
11463.6
2017.86
940.956
964.437
953.098
884.396
763.767
647.297
546.258
467.058
407.491
359.523
322.44
294.372
273.471
257.708
245.769
236.74
230.109
225.496
222.837
222.657
225.674
230.002
239.297
254.323
276.629
307.898
346.749
390.613
434.916
476.64
508.368
522.414
517.167
498.787
462.749
417.871
381.996
398.557
451.724
511.931
555.348
597.436
654.108
750.202
911.936
1106.65
1272.92
1363.51
1424.88
1468.8
1488.93
1452.51
1369.8
1326.19
1250.89
1192.73
1138.27
1091.65
1051.83
1020.17
994.486
975.003
959.944
948.933
940.886
935.304
931.659
929.457
928.702
928.449
929.009
930.171
931.779
933.792
936.091
938.627
941.337
944.187
947.146
950.186
953.288
956.432
959.605
962.794
965.989
969.181
972.366
975.538
978.698
981.845
984.985
988.122
991.264
994.419
997.597
1000.8
1004.04
1007.29
1010.52
1013.69
1016.75
1019.73
1022.61
1025.4
1028.1
1030.7
1033.21
1035.61
1037.93
1040.14
1042.25
1044.26
1046.16
1047.96
1049.66
1051.25
1052.73
1054.1
1055.36
1056.52
1057.56
1058.5
1059.32
1060.03
1060.62
1061.09
1061.43
1061.65
1061.73
1061.68
1061.49
1061.22
1060.86
1060.4
1059.83
1059.17
1058.4
1057.55
1056.61
1055.59
1054.48
1053.3
1052.03
1050.69
1049.27
1047.77
1046.19
1044.53
1042.79
1040.99
1039.12
1037.13
1035.17
1033.06
1031.01
1028.84
1026.71
1024.49
1022.25
1019.98
1017.67
1015.32
1012.95
1010.55
1008.14
1005.72
1003.3
1000.88
998.475
996.099
993.773
991.534
989.427
987.555
986.056
985.375
986.091
992.082
11463.7
2149.89
1425.3
1294.35
1065.77
847.488
660.742
524.488
429.97
364.173
317.399
284.856
261.076
242.906
228.664
217.343
208.42
201.555
196.495
192.98
190.806
190.375
191.156
192.987
197.067
203.701
213.763
228.504
249.151
275.35
304.306
334.162
362.41
385.206
399.443
397.991
389.559
395.311
445.8
542.983
617.623
675.668
742.862
834.808
948.723
1062.39
1152.29
1217.08
1265.51
1287.76
1288.35
1227.52
1164.32
1112.59
1052.09
1007.57
961.302
926.628
894.772
869.221
848.353
832.241
819.911
810.961
804.611
800.392
798.037
796.979
796.735
797.315
798.612
800.342
802.474
804.925
807.619
810.514
813.56
816.729
819.989
823.322
826.71
830.139
833.595
837.07
840.553
844.038
847.518
850.987
854.441
857.879
861.297
864.697
868.077
871.44
874.786
878.114
881.423
884.706
887.955
891.153
894.289
897.343
900.31
903.192
905.986
908.69
911.303
913.823
916.25
918.581
920.815
922.949
924.982
926.911
928.735
930.451
932.059
933.557
934.944
936.22
937.383
938.433
939.369
940.19
940.894
941.48
941.947
942.293
942.515
942.601
942.577
942.433
942.173
941.813
941.354
940.791
940.125
939.355
938.488
937.525
936.47
935.324
934.09
932.77
931.363
929.869
928.289
926.622
924.873
923.043
921.131
919.151
917.1
914.98
912.823
910.594
908.348
906.039
903.709
901.327
898.907
896.446
893.945
891.41
888.846
886.261
883.663
881.057
878.45
875.847
873.255
870.687
868.162
865.714
863.396
861.278
859.472
858.294
858.278
861.058
11463.6
2788.68
1855.64
1369.06
977.781
691.746
518.716
409.143
340.438
296.884
267.316
245.642
228.806
215.285
204.308
195.393
188.172
182.44
178.079
174.995
173.125
172.645
173.14
174.547
177.546
182.163
188.855
198.314
211.496
229.068
250.078
272.923
295.95
315.629
336.153
362.092
417.232
519.97
624.871
700.376
769.858
844.557
922.963
995.347
1052.63
1098.84
1133.43
1145.58
1128.92
1073.28
1026.2
976.325
928.834
891.659
854.054
825.007
798.009
776.867
758.688
744.531
733.578
725.587
720.021
716.587
714.952
714.457
714.883
716.24
718.187
720.638
723.481
726.611
729.974
733.522
737.212
741.012
744.897
748.847
752.843
756.874
760.928
764.995
769.068
773.139
777.202
781.252
785.284
789.291
793.27
797.218
801.132
805.011
808.854
812.658
816.423
820.144
823.818
827.437
830.991
834.471
837.872
841.185
844.409
847.541
850.579
853.52
856.363
859.106
861.748
864.287
866.719
869.043
871.255
873.352
875.332
877.191
878.929
880.544
882.034
883.398
884.635
885.746
886.728
887.581
888.304
888.895
889.355
889.684
889.868
889.918
889.848
889.654
889.339
888.909
888.365
887.707
886.935
886.049
885.055
883.953
882.746
881.437
880.028
878.519
876.91
875.202
873.393
871.484
869.481
867.387
865.204
862.944
860.612
858.216
855.769
853.265
850.722
848.13
845.5
842.82
840.095
837.323
834.508
831.656
828.775
825.874
822.961
820.044
817.127
814.214
811.312
808.43
805.587
802.811
800.145
797.649
795.408
793.649
792.682
793.415
11463.9
3528.36
1975.95
1226.28
776.089
536.964
409.893
340.797
297.636
267.986
245.959
228.447
214.153
202.281
192.307
183.943
177.047
171.556
167.447
164.608
163.01
162.705
163.302
164.946
167.875
172.089
178.067
186.304
197.478
212.141
230.392
252.669
280.952
318.617
368.566
451.722
567.491
668.293
745.213
814.547
877.794
930.518
970.857
1006.54
1026.88
1033.31
1010.69
965.704
924.913
884.131
846.34
811.855
781.893
756.169
732.938
714.117
697.861
685.012
674.736
667.131
661.784
658.589
657.176
656.885
657.775
659.604
662.143
665.27
668.828
672.729
676.89
681.25
685.764
690.394
695.113
699.896
704.726
709.587
714.466
719.352
724.237
729.114
733.977
738.82
743.639
748.429
753.184
757.899
762.568
767.187
771.753
776.263
780.716
785.109
789.44
793.705
797.9
802.023
806.067
810.032
813.903
817.675
821.346
824.913
828.373
831.722
834.959
838.079
841.078
843.954
846.707
849.335
851.835
854.204
856.437
858.531
860.484
862.295
863.961
865.482
866.857
868.085
869.166
870.1
870.885
871.52
872.007
872.345
872.515
872.55
872.448
872.208
871.834
871.331
870.698
869.938
869.05
868.036
866.899
865.642
864.266
862.774
861.169
859.449
857.617
855.669
853.605
851.423
849.12
846.696
844.17
841.558
838.868
836.113
833.301
830.436
827.524
824.564
821.559
818.502
815.393
812.231
809.021
805.77
802.49
799.191
795.883
792.574
789.268
785.968
782.677
779.405
776.169
772.994
769.914
766.979
764.253
761.904
760.062
759.261
11469.7
3808.76
1815.57
964.052
592.437
428.725
347.429
299.489
268.251
246.05
229.172
215.688
204.345
194.415
185.664
178.066
171.658
166.475
162.549
160.003
158.845
159.006
160.251
162.844
166.803
172.251
179.199
188.466
201.035
217.683
240.632
274.103
324.858
402.684
509.129
607.64
684.086
752.472
812.975
861.69
898.457
928.318
942.995
946.088
919.421
884.214
849.579
816.031
784.956
753.929
729.478
706.297
686.206
668.878
654.018
641.917
632.081
624.593
619.158
615.761
614.213
613.882
614.812
616.81
619.694
623.289
627.447
632.052
637.001
642.215
647.633
653.203
658.886
664.654
670.48
676.345
682.233
688.129
694.02
699.896
705.751
711.577
717.37
723.124
728.837
734.502
740.118
745.675
751.165
756.581
761.921
767.181
772.359
777.453
782.46
787.378
792.204
796.934
801.57
806.102
810.519
814.818
818.994
823.046
826.97
830.765
834.427
837.955
841.348
844.603
847.717
850.689
853.516
856.192
858.712
861.073
863.27
865.301
867.165
868.859
870.384
871.739
872.923
873.937
874.78
875.451
875.952
876.276
876.413
876.407
876.24
875.917
875.444
874.824
874.06
873.151
872.099
870.906
869.574
868.107
866.505
864.773
862.911
860.92
858.8
856.548
854.161
851.637
848.982
846.202
843.308
840.316
837.243
834.101
830.901
827.648
824.346
820.996
817.596
814.141
810.626
807.052
803.424
799.751
796.048
792.328
788.602
784.88
781.164
777.454
773.755
770.073
766.425
762.833
759.329
755.952
752.749
749.858
747.252
745.216
11488.8
3757.59
1486.81
756.621
499.382
387.028
326.172
287.038
261.371
242.507
227.229
214.35
203.156
193.284
184.617
177.179
171.061
166.362
163.189
161.414
160.96
161.793
163.895
167.548
173.137
181.076
192.047
207.764
230.018
260.984
305.805
374.064
461.882
548.121
619.357
681.823
737.092
785.219
824.678
856.333
871.414
873.925
848.986
818.898
788.967
760.84
734.317
708.491
688.134
668.166
650.783
634.825
621.115
609.517
599.967
592.461
586.834
583.004
581.082
580.516
581.177
583.056
585.968
589.759
594.281
599.403
605.007
610.996
617.288
623.817
630.523
637.361
644.293
651.291
658.328
665.384
672.45
679.504
686.531
693.522
700.469
707.365
714.208
720.993
727.715
734.366
740.928
747.414
753.816
760.126
766.336
772.442
778.441
784.334
790.115
795.783
801.333
806.761
812.058
817.22
822.245
827.127
831.865
836.454
840.893
845.18
849.312
853.288
857.106
860.766
864.265
867.603
870.774
873.776
876.601
879.242
881.694
883.953
886.016
887.883
889.552
891.024
892.299
893.376
894.257
894.94
895.427
895.703
895.786
895.694
895.42
894.97
894.353
893.572
892.629
891.525
890.262
888.842
887.267
885.539
883.662
881.639
879.469
877.156
874.696
872.086
869.319
866.392
863.311
860.086
856.732
853.27
849.72
846.101
842.425
838.697
834.922
831.099
827.223
823.286
819.281
815.208
811.074
806.891
802.679
798.452
794.225
790.008
785.8
781.602
777.413
773.242
769.103
765.02
761.02
757.137
753.401
749.949
746.679
743.723
11519.6
3325
1178.49
627.599
439.511
353.943
307.286
279.226
258.439
242.29
229.181
217.765
207.498
198.263
190.146
183.305
177.918
174.11
171.988
171.394
172.383
174.909
179.113
185.705
195.676
210.216
231.35
263.297
308.404
367.464
435.118
501.241
562.14
617.078
666.224
709.77
747.015
780.008
801.812
807.067
789.909
764.391
738.724
714.213
691.55
669.754
652.616
636.456
621.948
608.01
595.54
584.514
575.239
567.696
561.853
557.661
555.226
554.313
554.542
556.111
558.813
562.547
567.186
572.602
578.67
585.279
592.329
599.734
607.422
615.353
623.449
631.664
639.963
648.314
656.683
665.033
673.312
681.543
689.737
697.886
705.978
714.008
721.971
729.867
737.691
745.443
753.127
760.721
768.203
775.554
782.765
789.828
796.743
803.509
810.126
816.592
822.901
829.051
835.038
840.86
846.515
851.999
857.308
862.442
867.396
872.171
876.765
881.176
885.405
889.451
893.313
896.993
900.488
903.794
906.901
909.799
912.479
914.936
917.168
919.171
920.946
922.492
923.811
924.904
925.77
926.412
926.823
926.998
926.966
926.723
926.274
925.63
924.803
923.796
922.61
921.248
919.71
917.999
916.117
914.067
911.852
909.475
906.938
904.241
901.382
898.353
895.141
891.742
888.163
884.42
880.531
876.523
872.425
868.26
864.044
859.781
855.475
851.122
846.714
842.237
837.681
833.047
828.344
823.589
818.805
814.015
809.232
804.467
799.716
794.976
790.245
785.53
780.848
776.225
771.684
767.257
762.954
758.951
754.999
751.274
11551
2797.09
991.295
570.8
418.923
346.431
306.025
281.034
263.845
250.427
238.96
228.71
219.49
211.392
204.646
199.444
196.151
194.9
195.442
197.95
202.848
210.438
221.698
238.005
260.643
290.794
329.142
373.762
422.034
471.155
518.877
563.65
605.214
643.026
676.507
707.09
731.622
740.54
734.687
716.038
695.673
674.888
655.87
637.992
620.708
607.805
596.204
584.998
574.439
564.568
555.855
548.469
542.553
538.119
535.251
533.987
533.859
535.093
537.518
541.081
545.671
551.194
557.57
564.675
572.382
580.592
589.212
598.153
607.322
616.586
626.004
635.558
645.213
654.939
664.697
674.455
684.203
693.905
703.538
713.09
722.54
731.884
741.124
750.262
759.297
768.231
777.057
785.764
794.334
802.742
810.962
818.986
826.814
834.45
841.893
849.144
856.199
863.057
869.715
876.172
882.426
888.474
894.313
899.942
905.36
910.565
915.557
920.338
924.908
929.268
933.42
937.369
941.116
944.659
947.983
951.072
953.913
956.499
958.824
960.888
962.689
964.229
965.508
966.53
967.295
967.806
968.048
968.045
967.794
967.305
966.587
965.656
964.528
963.207
961.695
959.99
958.096
956.013
953.744
951.293
948.663
945.857
942.878
939.725
936.396
932.878
929.144
925.192
921.031
916.684
912.176
907.54
902.816
898.037
893.218
888.362
883.469
878.534
873.538
868.462
863.293
858.033
852.695
847.304
841.892
836.483
831.095
825.734
820.392
815.06
809.735
804.423
799.148
793.939
788.817
783.815
778.909
774.383
769.724
765.47
11574.8
2291.38
853.599
520.988
399.526
341.854
310.269
290.211
275.782
264.34
254.677
246.344
239.336
233.834
230.452
229.271
230.11
233.669
239.341
247.08
258
273.231
293.397
318.461
347.916
380.791
415.801
451.527
487.124
521.904
555.193
586.102
614.403
641.064
665.633
677.585
678.753
667.539
654.312
638.047
622.428
607.327
592.663
581.934
572.039
563.486
555.333
547.439
540.059
533.453
527.921
523.609
520.63
519.191
518.914
519.985
522.376
525.987
530.685
536.39
543.006
550.413
558.427
567.026
576.226
585.953
596.118
606.638
617.447
628.524
639.776
651.139
662.573
674.061
685.553
696.989
708.335
719.55
730.597
741.46
752.161
762.713
773.129
783.416
793.58
803.625
813.556
823.368
833.04
842.517
851.747
860.712
869.417
877.874
886.086
894.055
901.781
909.261
916.497
923.489
930.236
936.736
942.988
948.991
954.744
960.249
965.507
970.521
975.293
979.827
984.129
988.207
992.072
995.73
999.153
1002.32
1005.2
1007.79
1010.09
1012.08
1013.78
1015.19
1016.3
1017.12
1017.65
1017.89
1017.85
1017.53
1016.93
1016.06
1014.95
1013.6
1012.06
1010.31
1008.37
1006.21
1003.86
1001.3
998.549
995.601
992.462
989.135
985.625
981.933
978.052
973.962
969.615
965.008
960.165
955.115
949.89
944.532
939.104
933.643
928.161
922.657
917.126
911.558
905.922
900.185
894.335
888.38
882.338
876.247
870.149
864.074
858.036
852.038
846.061
840.089
834.119
828.159
822.244
816.408
810.668
805.065
799.516
794.537
789.08
784.679
11588.5
2071.79
818.927
513.837
401.438
350.331
322.419
304.665
292.217
282.842
275.551
270.007
266.469
265.102
265.495
268.609
274.182
282.045
291.991
304.896
320.879
339.844
361.473
385.241
410.52
436.645
463.018
489.209
514.756
539.03
562.016
584.204
605.445
619.233
623.13
619.058
612.056
601.407
590.246
578.475
566.701
557.713
550.049
543.642
537.663
532.12
526.843
521.94
517.666
514.29
512.233
511.385
511.512
512.923
515.483
519.152
523.719
529.294
535.948
543.624
552.237
561.704
571.98
582.968
594.555
606.648
619.139
631.929
644.945
658.138
671.449
684.758
698.01
711.164
724.21
737.108
749.82
762.311
774.55
786.52
798.255
809.803
821.189
832.43
843.532
854.509
865.379
876.165
886.864
897.354
907.501
917.274
926.701
935.811
944.616
953.12
961.323
969.226
976.833
984.145
991.165
997.894
1004.33
1010.48
1016.34
1021.91
1027.21
1032.22
1036.96
1041.44
1045.66
1049.64
1053.41
1057
1060.34
1063.39
1066.13
1068.54
1070.61
1072.36
1073.76
1074.84
1075.59
1076.03
1076.14
1075.95
1075.44
1074.61
1073.49
1072.08
1070.39
1068.48
1066.37
1064.06
1061.55
1058.82
1055.88
1052.72
1049.36
1045.8
1042.04
1038.08
1033.94
1029.61
1025.08
1020.33
1015.25
1009.86
1004.21
998.344
992.294
986.112
979.9
973.697
967.501
961.302
955.087
948.842
942.509
936.042
929.436
922.709
915.889
909.033
902.2
895.419
888.699
882.03
875.376
868.717
862.05
855.388
848.789
842.295
835.907
829.69
823.448
818.161
811.696
807.861
11596.4
1919.86
774.661
506.068
408.513
363.422
338.701
322.387
311.527
304.129
299.353
297.079
296.554
298.146
302.053
308.127
316.25
326.35
338.543
352.622
368.44
385.741
404.176
423.396
443.017
462.626
481.93
500.688
518.876
536.946
554.605
567.01
571.891
572.509
569.946
564.883
558.512
550.958
542.787
536.503
531.506
527.611
524.464
521.961
519.703
517.712
516.035
514.812
514.233
514.165
514.537
515.969
518.545
522.402
527.541
534.024
542.044
551.341
561.728
573.075
585.279
598.244
611.89
626.106
640.801
655.893
671.188
686.552
701.878
717.055
731.964
746.597
760.973
775.17
789.271
803.118
816.665
829.89
842.759
855.202
867.323
879.27
891.077
902.761
914.32
925.76
937.124
948.502
960.031
971.39
982.195
992.432
1002.21
1011.6
1020.63
1029.29
1037.6
1045.54
1053.14
1060.38
1067.29
1073.86
1080.1
1086.02
1091.61
1096.88
1101.84
1106.5
1110.86
1114.93
1118.73
1122.28
1125.62
1128.88
1131.88
1134.56
1136.88
1138.84
1140.42
1141.64
1142.49
1142.98
1143.11
1142.91
1142.37
1141.48
1140.26
1138.71
1136.85
1134.67
1132.19
1129.5
1126.67
1123.63
1120.39
1116.93
1113.25
1109.35
1105.25
1100.93
1096.42
1091.7
1086.8
1081.71
1076.43
1070.91
1064.95
1058.63
1052.03
1045.21
1038.21
1031.09
1024.03
1017.04
1010.09
1003.16
996.224
989.264
982.175
974.895
967.443
959.859
952.182
944.499
936.896
929.386
921.963
914.599
907.229
899.831
892.413
884.995
877.678
870.507
863.449
856.619
849.621
844.314
836.413
832.967
11599.3
1906.33
774.543
514.389
422.335
381.398
360.124
342.25
332.019
326.092
323.372
322.678
324.151
327.888
333.431
340.637
349.393
359.58
371.052
383.671
397.201
411.383
425.985
440.799
455.64
470.373
484.93
499.301
513.286
523.177
528.798
531.92
532.914
533.02
531.79
529.704
526.732
525.492
524.68
524.418
524.52
524.884
525.164
525.273
525.699
526.57
527.985
530.073
532.97
536.763
541.761
547.966
555.469
564.291
574.45
586.065
599.288
613.757
629.227
645.409
662.152
679.337
696.852
714.574
732.358
750.066
767.661
785.048
802.121
818.769
834.88
850.376
865.263
879.604
893.476
906.881
919.89
932.554
944.865
956.38
967.483
978.671
989.853
1001.04
1012.16
1023.18
1034.16
1045.33
1057.51
1069.63
1080.57
1090.6
1100.08
1109.17
1117.86
1126.13
1133.98
1141.41
1148.43
1155.06
1161.31
1167.19
1172.71
1177.88
1182.69
1187.16
1191.29
1195.1
1198.6
1201.81
1204.73
1207.4
1209.82
1212.04
1214
1215.67
1216.99
1217.98
1218.6
1218.85
1218.74
1218.31
1217.5
1216.38
1214.94
1213.19
1211.12
1208.75
1206.07
1203.08
1199.81
1196.28
1192.54
1188.58
1184.4
1180.01
1175.39
1170.56
1165.51
1160.27
1154.82
1149.18
1143.35
1137.35
1131.17
1124.76
1117.69
1110.24
1102.52
1094.6
1086.53
1078.36
1070.42
1062.64
1054.93
1047.23
1039.54
1031.83
1023.91
1015.71
1007.31
998.77
990.151
981.596
973.217
964.978
956.849
948.776
940.644
932.448
924.219
915.992
907.831
899.786
891.886
884.234
876.499
870.634
862.082
858.096
11599.5
1865.61
771.473
523.966
437.402
399.172
374.561
360.621
351.744
346.89
344.986
344.774
347.149
351.46
357.261
364.314
372.476
381.636
391.653
402.384
413.695
425.489
437.725
450.421
463.337
476.379
488.628
498.466
506.299
512.4
518.66
522.48
525.049
527.635
530.631
532.482
534.065
536.541
539.486
542.954
546.886
551.219
556.017
561.435
567.453
574.178
581.707
590.123
599.507
609.969
621.665
634.624
649.053
664.712
681.359
698.815
716.714
734.974
753.554
772.462
791.606
810.882
830.188
849.422
868.478
887.254
905.675
923.666
941.152
958.044
974.239
989.563
1004
1017.55
1030.3
1042.66
1055.03
1067.37
1080.5
1091.78
1101.79
1111.25
1120.76
1130.54
1140.29
1149.91
1159.39
1168.86
1178.49
1188
1197.02
1205.55
1213.77
1221.72
1229.29
1236.4
1243.02
1249.17
1254.87
1260.16
1265.05
1269.57
1273.71
1277.49
1280.91
1283.99
1286.73
1289.16
1291.27
1293.1
1294.69
1296.02
1297.11
1297.96
1298.56
1298.87
1298.84
1298.54
1297.87
1296.83
1295.46
1293.78
1291.78
1289.49
1286.92
1284.06
1280.92
1277.51
1273.82
1269.84
1265.59
1261.07
1256.31
1251.33
1246.13
1240.71
1235.08
1229.24
1223.21
1216.97
1210.55
1203.94
1197.16
1190.22
1183.11
1175.83
1168.23
1160.33
1152.19
1143.86
1135.37
1126.75
1118.16
1109.62
1101.11
1092.61
1084.11
1075.6
1066.74
1057.46
1047.98
1038.4
1028.76
1019.32
1010.22
1001.28
992.46
983.667
974.703
965.634
956.529
947.44
938.42
929.514
920.8
912.383
903.924
897.105
887.971
882.963
11596.1
1846.82
774.799
535.2
450.721
412.749
393.019
380.315
371.977
367.442
365.645
365.285
367.133
370.952
376.84
383.839
391.915
401.048
411.243
422.397
434.32
446.799
459.37
471.74
483.728
495.072
505.073
514.436
524.512
534.012
543.4
551.909
560.264
568.948
578.063
587.496
597.359
607.642
618.312
629.331
640.706
652.551
664.989
678.119
691.918
706.463
721.841
738.016
754.936
772.595
791.001
810.158
830.011
850.2
870.626
891.145
911.579
931.786
951.668
971.168
990.234
1008.81
1026.86
1044.34
1061.21
1077.45
1093.05
1108
1122.29
1135.92
1148.89
1161.23
1172.96
1183.89
1194.34
1204.78
1216.49
1227.89
1238.34
1247.82
1256.26
1263.81
1271.37
1278.87
1286.14
1293.14
1299.88
1306.4
1312.78
1318.96
1324.87
1330.56
1336.39
1342.25
1347.72
1352.63
1356.99
1360.86
1364.31
1367.36
1370.07
1372.43
1374.44
1376.13
1377.51
1378.58
1379.37
1379.87
1380.11
1380.14
1380.01
1379.69
1379.15
1378.4
1377.43
1376.21
1374.68
1372.85
1370.71
1368.25
1365.49
1362.45
1359.16
1355.63
1351.86
1347.86
1343.63
1339.16
1334.44
1329.47
1324.25
1318.78
1313.08
1307.16
1301.04
1294.72
1288.2
1281.5
1274.61
1267.55
1260.31
1252.9
1245.34
1237.62
1229.76
1221.75
1213.54
1205.12
1196.51
1187.73
1178.81
1169.76
1160.64
1151.5
1142.33
1133.16
1123.96
1114.75
1105.43
1095.9
1086.22
1076.43
1066.56
1056.72
1047.01
1037.4
1027.9
1018.37
1008.46
998.428
988.388
978.401
968.514
958.767
949.301
940.201
931.084
923.352
913.397
907.091
11590.5
1827.37
780.573
546.379
467.973
433.588
416.991
407.29
399.831
394.326
392.106
391.499
392.922
397.84
405.863
415.222
426.224
438.236
451.489
466.045
481.695
498.13
515.258
532.914
551.061
569.669
588.841
609.201
630.823
652.827
675.056
697.551
720.381
743.608
767.277
791.378
815.495
839.366
862.976
886.288
909.325
932.188
954.953
977.659
1000.34
1023.16
1046.66
1070.35
1093.7
1116.53
1138.7
1159.99
1179.95
1198.89
1216.9
1233.94
1249.96
1264.93
1278.86
1291.81
1303.8
1314.86
1325.05
1334.4
1342.97
1350.78
1357.9
1364.37
1370.25
1375.6
1380.52
1385.24
1389.86
1394.46
1399.03
1403.6
1408.43
1413.27
1417.71
1421.85
1425.89
1430.25
1434.3
1437.75
1440.74
1443.35
1445.68
1447.81
1449.78
1451.62
1453.33
1455.01
1457.87
1461.19
1463.73
1465.4
1466.52