/*--------------------------------*- C++ -*----------------------------------*\
| =========                 |                                                 |
| \\      /  F ield         | OpenFOAM: The Open Source CFD Toolbox           |
|  \\    /   O peration     | Version:  4.x                                   |
|   \\  /    A nd           | Web:      www.OpenFOAM.org                      |
|    \\/     M anipulation  |                                                 |
\*---------------------------------------------------------------------------*/
FoamFile
{
    version     2.0;
    format      ascii;
    class       volScalarField;
    location    "406";
    object      p;
}
// * * * * * * * * * * * * * * * * * * * * * * * * * * * * * * * * * * * * * //

dimensions      [0 2 -2 0 0 0 0];

internalField   nonuniform List<scalar> 
12225
(
-4.4887
-5.35435
-5.73863
-5.85301
-5.97173
-6.11683
-6.24806
-6.35605
-6.44841
-6.53298
-6.61489
-6.69491
-6.77364
-6.85302
-6.9356
-7.02575
-7.12638
-7.24836
-4.76302
-5.40756
-5.73038
-5.84027
-5.95561
-6.09639
-6.22543
-6.33319
-6.42717
-6.5144
-6.59783
-6.67838
-6.75707
-6.83576
-6.91665
-7.0028
-7.09242
-7.18205
-4.96385
-5.40378
-5.70514
-5.83913
-5.96004
-6.09721
-6.22327
-6.32939
-6.42276
-6.50962
-6.59186
-6.67075
-6.74747
-6.8236
-6.9004
-6.97887
-7.05422
-7.11584
-5.11245
-5.42832
-5.71426
-5.85876
-5.97439
-6.10148
-6.22126
-6.32416
-6.41557
-6.50067
-6.58136
-6.65871
-6.73373
-6.80736
-6.88009
-6.95139
-7.01623
-7.06645
-5.24265
-5.47632
-5.73183
-5.87643
-5.98749
-6.10699
-6.22184
-6.3222
-6.41181
-6.49523
-6.57436
-6.64992
-6.72268
-6.79314
-6.86128
-6.9259
-6.98299
-7.0268
-5.35926
-5.53024
-5.74877
-5.89095
-6.00005
-6.11342
-6.22329
-6.3208
-6.40839
-6.48997
-6.56722
-6.64065
-6.7108
-6.77788
-6.84157
-6.90048
-6.95167
-6.99114
-5.4635
-5.58682
-5.76942
-5.90607
-6.01273
-6.11978
-6.22413
-6.31842
-6.40377
-6.48333
-6.55849
-6.62964
-6.69709
-6.76085
-6.82046
-6.87466
-6.92139
-6.95817
-5.54339
-5.63695
-5.79181
-5.92059
-6.02394
-6.12545
-6.22482
-6.31598
-6.39912
-6.47669
-6.54983
-6.61887
-6.68392
-6.74493
-6.80139
-6.85227
-6.89617
-6.93147
-5.60836
-5.68208
-5.8143
-5.9346
-6.0344
-6.13096
-6.22574
-6.31386
-6.3948
-6.47037
-6.54155
-6.60857
-6.67145
-6.73006
-6.78395
-6.8323
-6.87416
-6.90848
-5.67316
-5.73073
-5.84114
-5.95122
-6.04643
-6.13764
-6.22732
-6.31184
-6.39011
-6.46327
-6.53213
-6.59683
-6.65731
-6.71341
-6.76473
-6.81071
-6.85076
-6.88427
-5.73696
-5.78162
-5.87215
-5.97066
-6.0601
-6.14557
-6.22971
-6.31004
-6.38514
-6.45549
-6.52166
-6.58375
-6.64163
-6.69512
-6.74394
-6.78771
-6.82615
-6.85896
-5.79868
-5.8333
-5.90658
-5.99281
-6.07531
-6.15469
-6.23297
-6.30857
-6.37997
-6.4471
-6.51025
-6.56946
-6.62458
-6.67543
-6.72182
-6.76356
-6.80055
-6.8327
-5.85715
-5.88412
-5.94305
-6.01711
-6.09178
-6.16474
-6.23696
-6.3074
-6.37463
-6.43816
-6.49801
-6.55414
-6.6064
-6.65462
-6.6987
-6.73855
-6.77421
-6.8057
-5.91096
-5.93221
-5.97962
-6.04239
-6.10884
-6.1752
-6.24131
-6.30637
-6.36909
-6.42873
-6.48508
-6.53801
-6.58737
-6.63302
-6.6749
-6.713
-6.74742
-6.77822
-5.95831
-5.97533
-6.01383
-6.06684
-6.12533
-6.18514
-6.24533
-6.30504
-6.36313
-6.41876
-6.47155
-6.52128
-6.5678
-6.61099
-6.65081
-6.68729
-6.72054
-6.75066
-5.99673
-6.01071
-6.04266
-6.08788
-6.13936
-6.19318
-6.24792
-6.30265
-6.35632
-6.40808
-6.45744
-6.50413
-6.54799
-6.5889
-6.62685
-6.66185
-6.69403
-6.72347
-6.02277
-6.03475
-6.06234
-6.10206
-6.14819
-6.19717
-6.24744
-6.298
-6.34787
-6.39625
-6.4426
-6.48664
-6.52817
-6.56712
-6.60345
-6.63719
-6.66844
-6.69728
-6.0307
-6.04185
-6.06763
-6.10489
-6.1483
-6.19453
-6.24209
-6.29005
-6.33745
-6.38355
-6.42782
-6.46999
-6.50989
-6.54744
-6.58263
-6.61547
-6.64606
-6.67448
-6.02005
-6.0316
-6.05819
-6.09613
-6.13967
-6.18551
-6.23242
-6.27958
-6.32611
-6.37126
-6.41458
-6.45584
-6.49492
-6.53175
-6.56632
-6.59869
-6.62893
-6.65716
-5.99557
-6.00862
-6.03837
-6.07966
-6.12552
-6.1727
-6.22047
-6.26822
-6.31505
-6.36024
-6.40344
-6.4445
-6.48334
-6.51993
-6.55428
-6.58647
-6.6166
-6.64478
-5.96028
-5.97615
-6.01165
-6.05869
-6.10837
-6.15795
-6.20761
-6.2569
-6.30479
-6.35063
-6.39422
-6.43552
-6.47448
-6.5111
-6.54545
-6.57763
-6.60775
-6.63598
-5.91585
-5.93639
-5.98083
-6.03582
-6.09013
-6.14264
-6.19489
-6.24633
-6.2957
-6.34252
-6.38681
-6.4286
-6.46788
-6.50467
-6.53911
-6.57134
-6.60151
-6.6298
-5.86294
-5.89104
-5.94849
-6.01314
-6.07208
-6.12774
-6.18307
-6.23697
-6.28797
-6.33591
-6.38106
-6.42348
-6.46317
-6.50019
-6.53474
-6.56702
-6.59722
-6.62555
-5.80139
-5.84176
-5.91728
-5.99223
-6.05494
-6.11384
-6.17269
-6.22913
-6.28167
-6.33073
-6.37679
-6.41989
-6.45998
-6.49722
-6.53184
-6.56412
-6.5943
-6.62266
-5.73033
-5.79027
-5.89003
-5.97443
-6.03913
-6.10119
-6.16376
-6.22263
-6.27658
-6.32673
-6.37372
-6.41747
-6.45793
-6.4953
-6.52989
-6.56205
-6.59208
-6.62033
-5.64905
-5.73826
-5.86808
-5.96015
-6.02526
-6.09016
-6.156
-6.21673
-6.27177
-6.32296
-6.37092
-6.41541
-6.45631
-6.49389
-6.5285
-6.56055
-6.59047
-6.61881
-5.55806
-5.68968
-5.84903
-5.94489
-6.01131
-6.08048
-6.14954
-6.2116
-6.26739
-6.3194
-6.3681
-6.41308
-6.4542
-6.49173
-6.52609
-6.55776
-6.58725
-6.61534
-5.44891
-5.65769
-5.83681
-5.92422
-5.99143
-6.06762
-6.14184
-6.20667
-6.26464
-6.3188
-6.36934
-6.41567
-6.45769
-6.49567
-6.53011
-6.56163
-6.591
-6.61986
-5.27608
-5.64946
-5.86025
-5.92794
-5.98644
-6.06313
-6.13769
-6.2017
-6.25937
-6.31397
-6.3652
-6.41208
-6.45444
-6.49242
-6.52628
-6.55667
-6.58479
-6.61186
-5.01522
-5.57532
-5.85149
-5.92675
-5.98944
-6.07212
-6.1504
-6.21601
-6.2748
-6.33055
-6.3828
-6.43039
-6.47306
-6.5108
-6.54314
-6.5706
-6.59491
-6.61533
-7.62028
-7.62043
-7.62054
-7.62066
-7.62072
-7.61987
-7.617
-7.61206
-7.60659
-7.60203
-7.6
-7.60161
-7.6067
-7.61436
-7.62348
-7.63301
-7.64202
-7.64973
-7.65555
-7.65912
-7.66068
-7.66078
-7.65974
-7.65781
-7.65541
-7.653
-7.65103
-7.64975
-7.64918
-7.64908
-7.64907
-7.64884
-7.64836
-7.6477
-7.64703
-7.64644
-7.64587
-7.64507
-7.64361
-7.6413
-7.63854
-7.63611
-7.63498
-7.63579
-7.63813
-7.64095
-7.64334
-7.64501
-7.64616
-7.64726
-7.64866
-7.65052
-7.65405
-7.66019
-7.66598
-7.66767
-7.66388
-7.65875
-7.65885
-7.67184
-7.70175
-7.74975
-7.81414
-7.89175
-7.97853
-8.06991
-8.16153
-8.24992
-8.33278
-8.40869
-8.47694
-8.53728
-8.58981
-8.6348
-8.67259
-8.70355
-8.72805
-8.7464
-8.75885
-8.76563
-8.7669
-8.76279
-8.7534
-8.73878
-8.71898
-8.69401
-8.66388
-8.62859
-8.5881
-8.54241
-8.49146
-8.43522
-8.37364
-8.30669
-8.23432
-8.15651
-8.07322
-7.98444
-7.89018
-7.79055
-7.68554
-7.57481
-7.45812
-7.33559
-7.20737
-7.07349
-6.93399
-6.78891
-6.63828
-6.48217
-6.32062
-6.15372
-5.98154
-5.80418
-5.62174
-5.43432
-5.24205
-5.04504
-4.84344
-4.63737
-4.42699
-4.21245
-3.99392
-3.77156
-3.54555
-3.31609
-3.08337
-2.84758
-2.60894
-2.36766
-2.124
-1.87822
-1.63045
-1.38073
-1.12926
-0.87637
-0.622294
-0.367264
-0.111504
0.144771
0.40136
0.658061
0.914684
1.17103
1.42693
1.6822
1.93666
2.19017
2.44256
2.6937
2.94345
3.1917
3.43832
3.68318
3.92614
4.16709
4.4059
4.64245
4.87664
5.10838
5.33759
5.56423
5.78824
6.00958
6.22821
6.44408
6.65711
6.86722
7.07432
7.27832
7.47913
7.67663
7.87075
8.06138
8.24842
8.43177
8.61138
8.7873
8.96179
9.12505
-7.62187
-7.62215
-7.62278
-7.6237
-7.62427
-7.62379
-7.62159
-7.61776
-7.61388
-7.61187
-7.61269
-7.61648
-7.62284
-7.63102
-7.64005
-7.64909
-7.65745
-7.66464
-7.67035
-7.6744
-7.67648
-7.67637
-7.67428
-7.67067
-7.66614
-7.66138
-7.65706
-7.65369
-7.65144
-7.65008
-7.6491
-7.64809
-7.64712
-7.64659
-7.64653
-7.64666
-7.64667
-7.64626
-7.64511
-7.64311
-7.64074
-7.639
-7.63875
-7.64023
-7.64274
-7.64514
-7.64676
-7.64727
-7.64681
-7.64686
-7.64742
-7.64631
-7.64392
-7.64439
-7.6529
-7.66456
-7.66913
-7.66761
-7.67149
-7.68952
-7.72613
-7.78174
-7.85383
-7.9377
-8.02782
-8.11934
-8.20843
-8.29248
-8.36997
-8.44014
-8.50277
-8.55794
-8.60593
-8.64704
-8.68162
-8.70999
-8.73241
-8.74913
-8.76035
-8.7662
-8.76681
-8.76225
-8.75257
-8.73782
-8.71801
-8.69313
-8.66318
-8.62814
-8.58798
-8.54268
-8.49219
-8.43647
-8.37547
-8.30915
-8.23746
-8.16035
-8.07777
-7.98966
-7.89595
-7.79652
-7.6913
-7.58047
-7.46419
-7.34236
-7.21492
-7.08185
-6.94317
-6.79891
-6.64911
-6.49382
-6.33309
-6.16699
-5.99562
-5.81905
-5.63738
-5.45074
-5.25922
-5.06295
-4.86207
-4.65671
-4.44702
-4.23315
-4.01526
-3.79352
-3.56811
-3.3392
-3.107
-2.87169
-2.63345
-2.39247
-2.14895
-1.90307
-1.65513
-1.4055
-1.15431
-0.901696
-0.647873
-0.393072
-0.137515
0.118587
0.375029
0.631614
0.888145
1.14443
1.40029
1.65554
1.91001
2.16354
2.41598
2.66717
2.917
3.16534
3.41206
3.65703
3.90014
4.14124
4.38022
4.61696
4.85134
5.08328
5.31271
5.53956
5.76378
5.98533
6.20417
6.42024
6.63348
6.84381
7.05114
7.25539
7.45646
7.65425
7.84869
8.03969
8.22722
8.41121
8.59171
8.76837
8.94537
9.10815
-7.6235
-7.62355
-7.62375
-7.62409
-7.62447
-7.62458
-7.62444
-7.62469
-7.62622
-7.62963
-7.63498
-7.64196
-7.65008
-7.65873
-7.66733
-7.6754
-7.68254
-7.68847
-7.69297
-7.69596
-7.69733
-7.69703
-7.69514
-7.69186
-7.68738
-7.68196
-7.67593
-7.66964
-7.66349
-7.65786
-7.65306
-7.64934
-7.64688
-7.64564
-7.64518
-7.64493
-7.64448
-7.64364
-7.64232
-7.64072
-7.63962
-7.63998
-7.64217
-7.64558
-7.64892
-7.65076
-7.65062
-7.64798
-7.64275
-7.6374
-7.63569
-7.63895
-7.64252
-7.64616
-7.65728
-7.67663
-7.69988
-7.72546
-7.75675
-7.7972
-7.84784
-7.90789
-7.97548
-8.04811
-8.12306
-8.19793
-8.27075
-8.34005
-8.40486
-8.46451
-8.51868
-8.56717
-8.60996
-8.6471
-8.67868
-8.70482
-8.72562
-8.7412
-8.75163
-8.757
-8.75735
-8.75271
-8.74311
-8.72855
-8.70903
-8.68454
-8.65504
-8.62051
-8.58093
-8.53624
-8.48642
-8.43142
-8.37117
-8.30565
-8.23479
-8.15855
-8.07689
-7.98975
-7.89709
-7.79882
-7.69485
-7.58521
-7.47001
-7.34924
-7.22287
-7.09089
-6.95331
-6.81016
-6.66146
-6.50728
-6.34765
-6.18266
-6.01238
-5.83689
-5.6563
-5.47072
-5.28025
-5.08501
-4.88515
-4.68079
-4.47207
-4.25915
-4.04219
-3.82135
-3.5968
-3.36874
-3.13734
-2.90281
-2.66533
-2.42511
-2.18233
-1.9372
-1.68995
-1.44089
-1.19021
-0.938076
-0.68471
-0.430334
-0.175165
0.0805879
0.336719
0.593029
0.849322
1.10541
1.36109
1.61621
1.87057
2.12402
2.3764
2.62756
2.87737
3.12571
3.37245
3.61747
3.86063
4.10182
4.34089
4.57774
4.81225
5.04433
5.27389
5.50088
5.72522
5.94689
6.16583
6.38198
6.5953
6.8057
7.0131
7.2174
7.41853
7.61639
7.81092
8.00203
8.18965
8.37374
8.5546
8.73124
8.91063
9.06961
-7.62447
-7.62419
-7.6238
-7.6237
-7.62469
-7.62748
-7.63209
-7.6382
-7.64546
-7.65355
-7.66213
-7.67089
-7.67951
-7.68775
-7.69534
-7.70207
-7.70773
-7.71217
-7.71528
-7.717
-7.71731
-7.71616
-7.71363
-7.7098
-7.70482
-7.69878
-7.69182
-7.6841
-7.67582
-7.66729
-7.65893
-7.65124
-7.64467
-7.63947
-7.63556
-7.63265
-7.63036
-7.62851
-7.62745
-7.62801
-7.63096
-7.63606
-7.64192
-7.64701
-7.64952
-7.64836
-7.64457
-7.64016
-7.6368
-7.63546
-7.63789
-7.64693
-7.66208
-7.68133
-7.7056
-7.73575
-7.77094
-7.80991
-7.85243
-7.89912
-7.95035
-8.00601
-8.06544
-8.12756
-8.19104
-8.25447
-8.31657
-8.37627
-8.4327
-8.48525
-8.53348
-8.57711
-8.61598
-8.65
-8.67914
-8.7034
-8.72279
-8.73734
-8.74705
-8.75194
-8.75203
-8.7473
-8.73775
-8.72336
-8.70411
-8.67996
-8.65089
-8.61685
-8.5778
-8.53371
-8.48453
-8.43021
-8.37069
-8.30593
-8.23586
-8.16042
-8.07957
-7.99326
-7.90143
-7.80403
-7.70102
-7.59242
-7.47826
-7.35852
-7.23318
-7.10224
-6.96571
-6.82361
-6.67598
-6.52285
-6.36428
-6.20034
-6.0311
-5.85665
-5.67709
-5.49252
-5.30306
-5.10882
-4.90993
-4.70653
-4.49875
-4.28675
-4.07069
-3.85071
-3.62701
-3.39977
-3.16915
-2.93537
-2.69861
-2.45908
-2.21699
-1.97252
-1.72593
-1.47744
-1.22727
-0.975612
-0.722692
-0.46873
-0.213939
0.0414698
0.297292
0.553328
0.809379
1.06525
1.32077
1.57573
1.82998
2.08334
2.33565
2.58676
2.83655
3.08489
3.33165
3.5767
3.81991
4.06116
4.30031
4.53725
4.77187
5.00406
5.23374
5.46084
5.6853
5.90707
6.1261
6.34234
6.55572
6.76617
6.97361
7.17794
7.37908
7.57696
7.77151
7.96265
8.15036
8.33453
8.51561
8.69192
8.87193
9.02518
-7.62651
-7.62597
-7.6254
-7.62635
-7.63062
-7.63811
-7.64757
-7.65792
-7.66845
-7.67868
-7.68836
-7.69737
-7.70566
-7.71317
-7.71977
-7.72537
-7.72984
-7.73309
-7.73504
-7.73566
-7.73493
-7.73281
-7.72935
-7.72461
-7.71864
-7.71151
-7.70331
-7.69416
-7.68415
-7.67342
-7.66216
-7.65069
-7.63955
-7.62932
-7.62054
-7.61361
-7.60881
-7.60651
-7.60743
-7.61215
-7.61974
-7.62786
-7.63421
-7.63812
-7.63964
-7.63923
-7.63832
-7.63825
-7.64118
-7.64869
-7.66156
-7.68093
-7.70675
-7.73763
-7.77207
-7.80906
-7.84823
-7.88955
-7.93335
-7.97992
-8.02938
-8.08151
-8.13581
-8.19152
-8.24778
-8.30367
-8.35832
-8.41096
-8.46098
-8.50784
-8.55115
-8.59061
-8.626
-8.65718
-8.68402
-8.70646
-8.72442
-8.73787
-8.74677
-8.75108
-8.75079
-8.74584
-8.73621
-8.72185
-8.70272
-8.67879
-8.64999
-8.6163
-8.57766
-8.53403
-8.48536
-8.43158
-8.37265
-8.30851
-8.23909
-8.16434
-8.0842
-7.99861
-7.90753
-7.81092
-7.70873
-7.60098
-7.48766
-7.36875
-7.24426
-7.11417
-6.97849
-6.83724
-6.69046
-6.53819
-6.38047
-6.21737
-6.04897
-5.87535
-5.69661
-5.51285
-5.32419
-5.13075
-4.93264
-4.73001
-4.52298
-4.31171
-4.09636
-3.87708
-3.65405
-3.42745
-3.19746
-2.96428
-2.72809
-2.48911
-2.24753
-2.00357
-1.75746
-1.50942
-1.25965
-1.00838
-0.755821
-0.502195
-0.247713
0.00741391
0.262982
0.518788
0.774638
1.03034
1.2857
1.54053
1.79467
2.04793
2.30017
2.55123
2.80099
3.04931
3.29608
3.54115
3.78439
4.02568
4.26489
4.50189
4.73657
4.96884
5.19861
5.4258
5.65035
5.8722
6.09132
6.30763
6.52107
6.73158
6.93907
7.14346
7.34466
7.54259
7.73719
7.92837
8.11613
8.30029
8.48133
8.65697
8.83656
8.98358
-7.63095
-7.6299
-7.62998
-7.63449
-7.64346
-7.65471
-7.66671
-7.67861
-7.68986
-7.70026
-7.70981
-7.71852
-7.72638
-7.7333
-7.73921
-7.74401
-7.74764
-7.75002
-7.7511
-7.75086
-7.74927
-7.74632
-7.74204
-7.73646
-7.7296
-7.72147
-7.7121
-7.70155
-7.68993
-7.67731
-7.66381
-7.64965
-7.63526
-7.62138
-7.6089
-7.599
-7.59285
-7.5914
-7.59478
-7.6012
-7.60828
-7.61472
-7.6199
-7.62407
-7.62774
-7.63181
-7.63741
-7.6458
-7.65882
-7.67733
-7.70111
-7.7296
-7.76177
-7.79702
-7.83478
-7.87443
-7.91571
-7.95847
-8.00285
-8.0489
-8.09656
-8.14562
-8.19575
-8.24646
-8.29718
-8.34733
-8.39632
-8.44357
-8.48861
-8.53101
-8.57039
-8.60646
-8.63897
-8.66773
-8.69257
-8.71337
-8.73001
-8.74242
-8.75051
-8.75422
-8.75349
-8.74825
-8.73845
-8.72402
-8.70491
-8.68107
-8.65244
-8.61896
-8.58059
-8.53728
-8.48897
-8.4356
-8.37712
-8.31345
-8.24453
-8.1703
-8.09071
-8.00569
-7.9152
-7.81919
-7.71764
-7.61052
-7.49784
-7.37957
-7.25571
-7.12625
-6.99121
-6.8506
-6.70445
-6.55281
-6.39571
-6.23323
-6.06544
-5.89242
-5.71428
-5.53111
-5.34304
-5.15017
-4.95263
-4.75055
-4.54406
-4.33332
-4.11848
-3.8997
-3.67715
-3.45101
-3.22147
-2.98873
-2.75296
-2.51437
-2.27318
-2.02958
-1.78382
-1.5361
-1.28664
-1.03565
-0.783364
-0.529992
-0.275747
-0.0208373
0.234532
0.490159
0.745848
1.0014
1.25663
1.51136
1.76539
2.01856
2.27072
2.52171
2.77142
3.01971
3.26645
3.51151
3.75475
3.99604
4.23526
4.47227
4.70698
4.93927
5.16907
5.39628
5.62087
5.84276
6.06192
6.27828
6.49177
6.70232
6.90984
7.11425
7.31547
7.51342
7.70802
7.8992
8.0869
8.2709
8.45168
8.62643
8.80542
8.94638
-7.63728
-7.6364
-7.63887
-7.64763
-7.65954
-7.67199
-7.68417
-7.69576
-7.7066
-7.71667
-7.72595
-7.73437
-7.74187
-7.74836
-7.75376
-7.75799
-7.76101
-7.76276
-7.76321
-7.76232
-7.76009
-7.75651
-7.7516
-7.74537
-7.73775
-7.72872
-7.71836
-7.7068
-7.69407
-7.68022
-7.66536
-7.64971
-7.6338
-7.61855
-7.60502
-7.59478
-7.58943
-7.58869
-7.59065
-7.5938
-7.59783
-7.60268
-7.60833
-7.61496
-7.62291
-7.63328
-7.6473
-7.66548
-7.68792
-7.71419
-7.7439
-7.77673
-7.81204
-7.84949
-7.88883
-7.92972
-7.97193
-8.01521
-8.05949
-8.10469
-8.15073
-8.19742
-8.24453
-8.29173
-8.33862
-8.38479
-8.42981
-8.47325
-8.51471
-8.55383
-8.59026
-8.62373
-8.65397
-8.68079
-8.70398
-8.72339
-8.73889
-8.75037
-8.75771
-8.76084
-8.75966
-8.7541
-8.74407
-8.7295
-8.71033
-8.68649
-8.6579
-8.62453
-8.58631
-8.54319
-8.49512
-8.44203
-8.38384
-8.3205
-8.25194
-8.17808
-8.09887
-8.01426
-7.92418
-7.82861
-7.7275
-7.62083
-7.5086
-7.39077
-7.26735
-7.13834
-7.00373
-6.86356
-6.71784
-6.56662
-6.40994
-6.24787
-6.08048
-5.90786
-5.73012
-5.54734
-5.35966
-5.16717
-4.97
-4.76829
-4.56216
-4.35177
-4.13726
-3.91881
-3.69658
-3.47075
-3.24151
-3.00905
-2.77356
-2.53525
-2.29432
-2.05098
-1.80546
-1.55797
-1.30872
-1.05793
-0.805846
-0.552662
-0.298594
-0.0438488
0.211367
0.466856
0.722416
0.977856
1.23298
1.4876
1.74154
1.99462
2.24669
2.49761
2.74725
2.99548
3.24217
3.48719
3.73039
3.97165
4.21083
4.44782
4.68249
4.91475
5.14451
5.3717
5.59627
5.81816
6.03732
6.25369
6.46719
6.67774
6.88525
7.08964
7.29083
7.48875
7.68331
7.87441
8.06199
8.24573
8.42612
8.59993
8.7784
8.91373
-7.64319
-7.64371
-7.64993
-7.66114
-7.67331
-7.68519
-7.69665
-7.70763
-7.71804
-7.72781
-7.73682
-7.74497
-7.75217
-7.75832
-7.76336
-7.76721
-7.76983
-7.77117
-7.77121
-7.76992
-7.76728
-7.76332
-7.75799
-7.7512
-7.74288
-7.7332
-7.72232
-7.71025
-7.69701
-7.6827
-7.66757
-7.65189
-7.63621
-7.62154
-7.60935
-7.60102
-7.5962
-7.59323
-7.59138
-7.59126
-7.59363
-7.59827
-7.6051
-7.61509
-7.6289
-7.64632
-7.66714
-7.69114
-7.71833
-7.74841
-7.7811
-7.8162
-7.85334
-7.89221
-7.93252
-7.97401
-8.01647
-8.05973
-8.10366
-8.14817
-8.19309
-8.23827
-8.28347
-8.32844
-8.3729
-8.41651
-8.45893
-8.49981
-8.53883
-8.57565
-8.60999
-8.64156
-8.67012
-8.69545
-8.71736
-8.73566
-8.75023
-8.76091
-8.76761
-8.7702
-8.7686
-8.76271
-8.75243
-8.73768
-8.71838
-8.69445
-8.66583
-8.63245
-8.59427
-8.55124
-8.50329
-8.45035
-8.39234
-8.3292
-8.26085
-8.18723
-8.10826
-8.0239
-7.93409
-7.83878
-7.73795
-7.63156
-7.51959
-7.40204
-7.27889
-7.15014
-7.0158
-6.87589
-6.73043
-6.57946
-6.42303
-6.2612
-6.09405
-5.92166
-5.74414
-5.56159
-5.37412
-5.18185
-4.9849
-4.7834
-4.57748
-4.36729
-4.15297
-3.9347
-3.71265
-3.487
-3.25794
-3.02565
-2.79033
-2.55219
-2.31143
-2.06826
-1.8229
-1.57556
-1.32645
-1.07582
-0.823871
-0.570827
-0.316893
-0.0622758
0.192821
0.448197
0.703655
0.958999
1.21403
1.46857
1.72242
1.97541
2.22739
2.47823
2.72779
2.97594
3.22256
3.46751
3.71064
3.95183
4.19093
4.42785
4.66245
4.89464
5.12433
5.35146
5.57598
5.79783
6.01696
6.2333
6.44678
6.65729
6.86476
7.0691
7.27024
7.46809
7.66258
7.85357
8.04098
8.22441
8.40438
8.57725
8.7553
8.88559
-7.64679
-7.64946
-7.65863
-7.67006
-7.68134
-7.6924
-7.70326
-7.7138
-7.72389
-7.7334
-7.7422
-7.75016
-7.75717
-7.76314
-7.76798
-7.77164
-7.77407
-7.77522
-7.77507
-7.7736
-7.77081
-7.76666
-7.76104
-7.75383
-7.74524
-7.73545
-7.72452
-7.71254
-7.69952
-7.68559
-7.67104
-7.65642
-7.64254
-7.63029
-7.62042
-7.61276
-7.60618
-7.60042
-7.59615
-7.59435
-7.59602
-7.6017
-7.61153
-7.62537
-7.64277
-7.66342
-7.68722
-7.71396
-7.74351
-7.77564
-7.81008
-7.84653
-7.88472
-7.92438
-7.96525
-8.00712
-8.04979
-8.09313
-8.13696
-8.18114
-8.22549
-8.26985
-8.31401
-8.35775
-8.40081
-8.44291
-8.48377
-8.52309
-8.56058
-8.59594
-8.62891
-8.6592
-8.6866
-8.71087
-8.73182
-8.74929
-8.76312
-8.77316
-8.77931
-8.78144
-8.77946
-8.77325
-8.76271
-8.74775
-8.72828
-8.7042
-8.67546
-8.642
-8.60377
-8.56073
-8.5128
-8.45992
-8.40199
-8.33893
-8.27068
-8.19716
-8.1183
-8.03405
-7.94436
-7.84918
-7.74846
-7.64219
-7.53035
-7.41292
-7.2899
-7.16127
-7.02706
-6.88727
-6.74193
-6.59108
-6.43476
-6.27303
-6.10597
-5.93367
-5.75624
-5.57379
-5.38641
-5.19423
-4.99737
-4.79595
-4.59011
-4.38
-4.16576
-3.94756
-3.72558
-3.50001
-3.27102
-3.03881
-2.80357
-2.56553
-2.32487
-2.0818
-1.83654
-1.58929
-1.34029
-1.08976
-0.837923
-0.584987
-0.331158
-0.0766449
0.178353
0.433635
0.689006
0.944268
1.19923
1.45369
1.70745
1.96035
2.21223
2.46297
2.71243
2.96048
3.20701
3.45186
3.69489
3.93597
4.17497
4.41178
4.64629
4.87837
5.10796
5.33499
5.55943
5.78122
6.0003
6.21659
6.43001
6.64047
6.84788
7.05214
7.2532
7.45097
7.64536
7.83622
8.02342
8.20652
8.38606
8.55801
8.73573
8.86166
-7.64681
-7.65157
-7.66146
-7.67199
-7.68248
-7.693
-7.70346
-7.71373
-7.72365
-7.73306
-7.7418
-7.74973
-7.75674
-7.76273
-7.76762
-7.77133
-7.77382
-7.77503
-7.77494
-7.77353
-7.77076
-7.76655
-7.76082
-7.7537
-7.74535
-7.73586
-7.72532
-7.71378
-7.70138
-7.68842
-7.67533
-7.66274
-7.65126
-7.64084
-7.63127
-7.62247
-7.61434
-7.6073
-7.60248
-7.60115
-7.60405
-7.61114
-7.62213
-7.63694
-7.65536
-7.67717
-7.70225
-7.73039
-7.76124
-7.79451
-7.8299
-7.86715
-7.90601
-7.94623
-7.98759
-8.0299
-8.07297
-8.11662
-8.16065
-8.2049
-8.2492
-8.29337
-8.33719
-8.38045
-8.42291
-8.46433
-8.50445
-8.543
-8.57971
-8.61429
-8.64647
-8.676
-8.70265
-8.7262
-8.74648
-8.7633
-8.77654
-8.78608
-8.79178
-8.79354
-8.79123
-8.78475
-8.77398
-8.75881
-8.73915
-8.7149
-8.68598
-8.65237
-8.61401
-8.57088
-8.52291
-8.46999
-8.41204
-8.34896
-8.28069
-8.20715
-8.12828
-8.04402
-7.95432
-7.85912
-7.7584
-7.65213
-7.54029
-7.42286
-7.29984
-7.17123
-7.03703
-6.89726
-6.75193
-6.6011
-6.44479
-6.28307
-6.116
-5.94369
-5.76626
-5.58379
-5.39641
-5.20423
-5.00736
-4.80593
-4.60008
-4.38995
-4.1757
-3.9575
-3.73551
-3.50993
-3.28095
-3.04875
-2.81355
-2.57555
-2.33494
-2.09193
-1.84673
-1.59955
-1.35062
-1.10018
-0.848434
-0.59559
-0.341856
-0.087437
0.167468
0.422662
0.677951
0.933137
1.18802
1.44241
1.69609
1.94889
2.20067
2.4513
2.70064
2.94858
3.19498
3.43971
3.6826
3.92354
4.1624
4.39909
4.63347
4.86541
5.09487
5.32179
5.54612
5.76783
5.98683
6.20306
6.41642
6.62681
6.83413
7.0383
7.23927
7.43694
7.63122
7.82192
8.00891
8.19164
8.37076
8.54183
8.71925
8.84152
-7.64067
-7.64663
-7.65592
-7.66578
-7.67596
-7.68628
-7.69664
-7.7069
-7.7169
-7.72645
-7.73539
-7.74357
-7.75086
-7.75714
-7.76234
-7.76636
-7.76916
-7.77067
-7.77087
-7.7697
-7.76714
-7.76312
-7.75767
-7.75091
-7.74295
-7.73391
-7.72391
-7.71309
-7.70179
-7.69042
-7.67912
-7.66798
-7.65709
-7.64649
-7.63623
-7.62657
-7.61806
-7.61145
-7.60753
-7.60692
-7.61006
-7.61711
-7.62812
-7.64308
-7.66187
-7.68434
-7.71018
-7.73904
-7.77057
-7.80447
-7.84047
-7.87831
-7.91776
-7.95858
-8.00055
-8.04347
-8.08712
-8.13132
-8.17587
-8.2206
-8.26531
-8.3098
-8.35386
-8.39725
-8.43974
-8.4811
-8.52108
-8.55943
-8.59587
-8.63015
-8.66199
-8.69114
-8.71738
-8.7405
-8.76032
-8.77669
-8.78949
-8.79863
-8.80399
-8.80545
-8.80289
-8.79617
-8.78519
-8.76983
-8.74997
-8.72553
-8.6964
-8.66256
-8.62401
-8.58073
-8.53263
-8.47961
-8.42154
-8.35835
-8.28996
-8.21631
-8.13733
-8.05295
-7.96313
-7.86782
-7.76699
-7.66062
-7.54868
-7.43117
-7.30808
-7.1794
-7.04513
-6.9053
-6.75992
-6.60904
-6.45269
-6.29091
-6.12378
-5.95141
-5.7739
-5.59138
-5.40394
-5.21169
-5.01475
-4.81325
-4.60733
-4.39714
-4.18282
-3.96455
-3.74251
-3.51688
-3.28786
-3.05565
-2.82046
-2.58247
-2.3419
-2.09893
-1.85378
-1.60667
-1.35781
-1.10746
-0.855807
-0.603062
-0.349431
-0.0951139
0.159688
0.414783
0.669976
0.925075
1.17988
1.43421
1.68782
1.94052
2.19219
2.44269
2.6919
2.93969
3.18595
3.43051
3.67323
3.91399
4.15268
4.38922
4.62345
4.85524
5.08455
5.31134
5.53556
5.75717
5.97609
6.19224
6.40553
6.61585
6.82306
7.02714
7.228
7.42557
7.61973
7.81027
7.99703
8.17941
8.35811
8.52834
8.70544
8.82474
-7.62557
-7.63168
-7.64054
-7.65058
-7.66108
-7.67167
-7.68228
-7.69284
-7.7032
-7.71319
-7.72261
-7.73131
-7.73914
-7.74599
-7.75174
-7.75632
-7.75966
-7.7617
-7.76238
-7.76168
-7.75954
-7.75596
-7.75097
-7.74471
-7.73734
-7.72906
-7.72002
-7.71033
-7.70009
-7.68944
-7.67849
-7.66731
-7.65598
-7.64468
-7.63383
-7.62395
-7.61561
-7.60929
-7.60555
-7.60498
-7.60807
-7.61511
-7.62628
-7.64157
-7.66086
-7.68385
-7.71016
-7.73945
-7.77143
-7.8058
-7.84233
-7.88077
-7.92088
-7.96241
-8.00515
-8.04887
-8.09335
-8.13838
-8.18375
-8.22927
-8.27471
-8.31988
-8.36453
-8.40846
-8.45142
-8.49318
-8.53349
-8.57208
-8.60868
-8.64303
-8.67487
-8.70394
-8.73001
-8.75289
-8.77241
-8.78843
-8.80087
-8.80966
-8.81471
-8.8159
-8.81309
-8.80617
-8.795
-8.77945
-8.75942
-8.73477
-8.70539
-8.67127
-8.63247
-8.58901
-8.54077
-8.48759
-8.42935
-8.36597
-8.29739
-8.22354
-8.14438
-8.05982
-7.96982
-7.87433
-7.77332
-7.66678
-7.5547
-7.43705
-7.31383
-7.18504
-7.05067
-6.91075
-6.7653
-6.61435
-6.45794
-6.29611
-6.12891
-5.95646
-5.77889
-5.59629
-5.40876
-5.21642
-5.01939
-4.81779
-4.61178
-4.40149
-4.18709
-3.96874
-3.74663
-3.52095
-3.29188
-3.05966
-2.82446
-2.5865
-2.34598
-2.10307
-1.858
-1.61096
-1.36222
-1.11198
-0.860442
-0.607816
-0.354306
-0.100112
0.154568
0.409541
0.664618
0.919609
1.17434
1.42863
1.68219
1.93478
2.18633
2.4367
2.68574
2.93337
3.17944
3.42379
3.66629
3.90682
4.14531
4.38169
4.61577
4.8474
5.07655
5.3032
5.5273
5.74881
5.96764
6.1837
6.39692
6.60715
6.81426
7.01823
7.219
7.41647
7.6105
7.80088
7.9874
8.16942
8.34772
8.51712
8.69382
8.81084
-7.60001
-7.60564
-7.61501
-7.62618
-7.63754
-7.64869
-7.65975
-7.67086
-7.68189
-7.69265
-7.7029
-7.71244
-7.7211
-7.72873
-7.73526
-7.74059
-7.74467
-7.74741
-7.74877
-7.74873
-7.74728
-7.74444
-7.74028
-7.73488
-7.72836
-7.72081
-7.71234
-7.70302
-7.69293
-7.68215
-7.67076
-7.65892
-7.64688
-7.63506
-7.62385
-7.61366
-7.60498
-7.59843
-7.59462
-7.59415
-7.59751
-7.60499
-7.6167
-7.63253
-7.65225
-7.67559
-7.70223
-7.73188
-7.76429
-7.79921
-7.83638
-7.87552
-7.91638
-7.95874
-8.00234
-8.04696
-8.09237
-8.13839
-8.18478
-8.23131
-8.27775
-8.32385
-8.36939
-8.41415
-8.45789
-8.50036
-8.54131
-8.58045
-8.61751
-8.65221
-8.68423
-8.71332
-8.73927
-8.76192
-8.78113
-8.79678
-8.80879
-8.81719
-8.82192
-8.82289
-8.8199
-8.81282
-8.80154
-8.7859
-8.76576
-8.74097
-8.71136
-8.67694
-8.63791
-8.59428
-8.54587
-8.49248
-8.434
-8.37038
-8.30156
-8.2275
-8.14812
-8.06334
-7.97312
-7.8774
-7.77619
-7.66947
-7.55723
-7.43945
-7.31611
-7.18721
-7.05274
-6.91274
-6.76723
-6.61626
-6.45985
-6.29803
-6.13084
-5.95839
-5.78079
-5.59814
-5.41054
-5.21812
-5.02101
-4.81933
-4.61323
-4.40287
-4.1884
-3.96998
-3.74782
-3.5221
-3.29302
-3.0608
-2.82563
-2.58773
-2.34729
-2.10451
-1.85957
-1.6127
-1.36412
-1.11405
-0.862681
-0.610227
-0.356889
-0.102869
0.151638
0.406439
0.66135
0.916192
1.17083
1.42516
1.67875
1.93126
2.18268
2.43289
2.68174
2.92915
3.17499
3.41908
3.6613
3.90156
4.13982
4.37605
4.61003
4.84151
5.07051
5.29702
5.521
5.74241
5.96112
6.17707
6.39022
6.60038
6.80739
7.01126
7.21194
7.40932
7.60323
7.79343
7.9797
8.16139
8.33923
8.50788
8.68389
8.79928
-7.56411
-7.56972
-7.58048
-7.5934
-7.60588
-7.61766
-7.62936
-7.64138
-7.65354
-7.66546
-7.67682
-7.68742
-7.69708
-7.70568
-7.71314
-7.7194
-7.72438
-7.72803
-7.73031
-7.73118
-7.73064
-7.7287
-7.72538
-7.72073
-7.71479
-7.70763
-7.69929
-7.68984
-7.67935
-7.66794
-7.65581
-7.64324
-7.63052
-7.61797
-7.60602
-7.5952
-7.58613
-7.57947
-7.57587
-7.57587
-7.57986
-7.58799
-7.60025
-7.61649
-7.63651
-7.66009
-7.68698
-7.71696
-7.74977
-7.78517
-7.8229
-7.86271
-7.90437
-7.94762
-7.99218
-8.03781
-8.08428
-8.1314
-8.17892
-8.22659
-8.27414
-8.32133
-8.36791
-8.41365
-8.45827
-8.50153
-8.54313
-8.5828
-8.62026
-8.6552
-8.68727
-8.71626
-8.74203
-8.76446
-8.78339
-8.79856
-8.81001
-8.81796
-8.82243
-8.82327
-8.82026
-8.81325
-8.80209
-8.78657
-8.76654
-8.74182
-8.71216
-8.67764
-8.63856
-8.59485
-8.54619
-8.49246
-8.43362
-8.36968
-8.30059
-8.22627
-8.14665
-8.06161
-7.97111
-7.87512
-7.77367
-7.66674
-7.55433
-7.43641
-7.31296
-7.18396
-7.0494
-6.90934
-6.76381
-6.61285
-6.45651
-6.29481
-6.12778
-5.95544
-5.77788
-5.59522
-5.40759
-5.21512
-5.01796
-4.81624
-4.61011
-4.39972
-4.18523
-3.96681
-3.74466
-3.51897
-3.28994
-3.05778
-2.82272
-2.58496
-2.3447
-2.10216
-1.8575
-1.61093
-1.36266
-1.11289
-0.861821
-0.609671
-0.356642
-0.102933
0.151258
0.405742
0.660341
0.914889
1.1693
1.42359
1.67721
1.92962
2.18089
2.4309
2.67952
2.92663
3.17211
3.41583
3.6577
3.89765
4.13567
4.37185
4.60583
4.8372
5.06608
5.29247
5.51634
5.73762
5.95619
6.17201
6.38513
6.59526
6.80219
7.00599
7.20661
7.4039
7.59766
7.78767
7.97369
8.15503
8.33231
8.50032
8.67533
8.78949
-7.52038
-7.52688
-7.53971
-7.55477
-7.56854
-7.58119
-7.59362
-7.60643
-7.61973
-7.63304
-7.64588
-7.65793
-7.6689
-7.67857
-7.68695
-7.69417
-7.70018
-7.70489
-7.70824
-7.71016
-7.71061
-7.70955
-7.70698
-7.70289
-7.69728
-7.69017
-7.68162
-7.6717
-7.66055
-7.64837
-7.63536
-7.62178
-7.60798
-7.59444
-7.58173
-7.57046
-7.56126
-7.5548
-7.55162
-7.55211
-7.55651
-7.56493
-7.57733
-7.59362
-7.61367
-7.63729
-7.66428
-7.69442
-7.72748
-7.76322
-7.80142
-7.84184
-7.88426
-7.9284
-7.97402
-8.02084
-8.06859
-8.11696
-8.16566
-8.21442
-8.26299
-8.31112
-8.35857
-8.40507
-8.45036
-8.49416
-8.5362
-8.57618
-8.6138
-8.64869
-8.68043
-8.70888
-8.73415
-8.75627
-8.77496
-8.78955
-8.80016
-8.80747
-8.81154
-8.81221
-8.80935
-8.80273
-8.79203
-8.77694
-8.75729
-8.73308
-8.70428
-8.67078
-8.6324
-8.5889
-8.54015
-8.48621
-8.42714
-8.36296
-8.29362
-8.21903
-8.13912
-8.05379
-7.96297
-7.86668
-7.76494
-7.65776
-7.54511
-7.42699
-7.30335
-7.17417
-7.03946
-6.89927
-6.75364
-6.60263
-6.44627
-6.28459
-6.11761
-5.94532
-5.76778
-5.58512
-5.39749
-5.20503
-5.00788
-4.80618
-4.60009
-4.38974
-4.1753
-3.95696
-3.73489
-3.50931
-3.28041
-3.0484
-2.81351
-2.57595
-2.33592
-2.09362
-1.84927
-1.60304
-1.3551
-1.10567
-0.854968
-0.603192
-0.350552
-0.09725
0.156517
0.410557
0.664681
0.918711
1.1725
1.42591
1.67877
1.93082
2.18179
2.43148
2.6797
2.92632
3.17121
3.41435
3.65571
3.89522
4.13289
4.36894
4.60289
4.83419
5.06296
5.28923
5.51295
5.73404
5.95242
6.16815
6.38133
6.59152
6.79842
7.00221
7.20281
7.40004
7.59369
7.78351
7.96925
8.15026
8.32685
8.49424
8.66812
8.78142
-7.47325
-7.48109
-7.49661
-7.51395
-7.52836
-7.54127
-7.55475
-7.56908
-7.58379
-7.59838
-7.61252
-7.62595
-7.63833
-7.64928
-7.65874
-7.66701
-7.67417
-7.68009
-7.68462
-7.68767
-7.68915
-7.68896
-7.68704
-7.68336
-7.67788
-7.67064
-7.66168
-7.65112
-7.63908
-7.62578
-7.6115
-7.59663
-7.58164
-7.5671
-7.55363
-7.54186
-7.53239
-7.52579
-7.5225
-7.52282
-7.52697
-7.53505
-7.54708
-7.56301
-7.58276
-7.60617
-7.63307
-7.66327
-7.69654
-7.73267
-7.77141
-7.81252
-7.85574
-7.9008
-7.94741
-7.99529
-8.04411
-8.09354
-8.14324
-8.19293
-8.24235
-8.29123
-8.3393
-8.38631
-8.43199
-8.47609
-8.51835
-8.55848
-8.59613
-8.63079
-8.66164
-8.68855
-8.71219
-8.73328
-8.75196
-8.76772
-8.77991
-8.78813
-8.79238
-8.793
-8.79016
-8.78366
-8.7731
-8.75814
-8.73864
-8.71473
-8.68658
-8.65389
-8.61605
-8.57279
-8.5242