/*--------------------------------*- C++ -*----------------------------------*\
| =========                 |                                                 |
| \\      /  F ield         | OpenFOAM: The Open Source CFD Toolbox           |
|  \\    /   O peration     | Version:  4.x                                   |
|   \\  /    A nd           | Web:      www.OpenFOAM.org                      |
|    \\/     M anipulation  |                                                 |
\*---------------------------------------------------------------------------*/
FoamFile
{
    version     2.0;
    format      ascii;
    class       surfaceScalarField;
    location    "406";
    object      phi;
}
// * * * * * * * * * * * * * * * * * * * * * * * * * * * * * * * * * * * * * //

dimensions      [0 3 -1 0 0 0 0];

internalField   nonuniform List<scalar> 
24170
(
2.99758e-06
1.36313e-07
2.85511e-06
1.42464e-07
2.7266e-06
1.285e-07
2.61114e-06
1.15466e-07
2.50785e-06
1.03285e-07
2.41696e-06
9.08863e-08
2.33803e-06
7.89325e-08
2.26997e-06
6.80569e-08
2.21123e-06
5.87365e-08
2.16019e-06
5.10388e-08
2.11579e-06
4.44061e-08
2.07727e-06
3.8517e-08
2.04408e-06
3.31852e-08
2.01583e-06
2.82502e-08
1.99234e-06
2.3491e-08
1.97393e-06
1.84184e-08
1.96149e-06
1.24348e-08
2.58361e-10
1.96123e-06
3.52012e-06
7.26346e-08
3.55143e-06
1.11143e-07
3.56672e-06
1.13212e-07
3.5691e-06
1.13081e-07
3.56146e-06
1.10915e-07
3.54661e-06
1.05732e-07
3.52683e-06
9.87133e-08
3.50378e-06
9.11096e-08
3.47898e-06
8.3535e-08
3.45372e-06
7.62953e-08
3.42865e-06
6.94754e-08
3.40417e-06
6.29972e-08
3.38057e-06
5.67855e-08
3.35809e-06
5.07277e-08
3.33695e-06
4.46337e-08
3.31737e-06
3.80033e-08
3.2994e-06
3.03995e-08
1.97087e-08
3.27995e-06
3.83199e-06
5.28364e-08
3.84998e-06
9.31513e-08
3.8654e-06
9.77899e-08
3.87861e-06
9.98778e-08
3.88933e-06
1.00192e-07
3.89753e-06
9.75331e-08
3.90334e-06
9.28947e-08
3.90699e-06
8.74611e-08
3.90877e-06
8.17606e-08
3.90903e-06
7.60358e-08
3.90811e-06
7.03953e-08
3.90627e-06
6.48341e-08
3.90374e-06
5.93166e-08
3.90071e-06
5.37574e-08
3.89734e-06
4.80054e-08
3.89365e-06
4.16892e-08
3.88938e-06
3.46706e-08
2.61747e-08
3.88291e-06
4.21597e-06
4.14262e-08
4.22855e-06
8.05651e-08
4.23871e-06
8.76275e-08
4.24789e-06
9.06974e-08
4.25621e-06
9.18744e-08
4.26355e-06
9.0187e-08
4.26997e-06
8.64783e-08
4.27554e-06
8.18831e-08
4.28035e-06
7.69491e-08
4.28449e-06
7.19022e-08
4.28806e-06
6.68267e-08
4.29115e-06
6.17439e-08
4.29384e-06
5.66235e-08
4.29619e-06
5.14016e-08
4.29824e-06
4.59597e-08
4.29984e-06
4.00851e-08
4.30077e-06
3.37442e-08
2.68024e-08
4.30014e-06
4.64571e-06
3.3025e-08
4.65672e-06
6.95536e-08
4.66532e-06
7.90277e-08
4.6731e-06
8.29166e-08
4.68035e-06
8.46255e-08
4.68694e-06
8.36024e-08
4.69285e-06
8.05599e-08
4.6982e-06
7.6539e-08
4.70304e-06
7.21023e-08
4.70747e-06
6.74754e-08
4.71155e-06
6.27529e-08
4.71532e-06
5.79702e-08
4.71883e-06
5.31144e-08
4.72209e-06
4.814e-08
4.72508e-06
4.29728e-08
4.72765e-06
3.75102e-08
4.72962e-06
3.17799e-08
2.58974e-08
4.73052e-06
5.12116e-06
2.6458e-08
5.13114e-06
5.95736e-08
5.13927e-06
7.08961e-08
5.14668e-06
7.5509e-08
5.15367e-06
7.76289e-08
5.16011e-06
7.71689e-08
5.16595e-06
7.47159e-08
5.17129e-06
7.12043e-08
5.17619e-06
6.71968e-08
5.18074e-06
6.29254e-08
5.18499e-06
5.85041e-08
5.18898e-06
5.39809e-08
5.19273e-06
4.93669e-08
5.19623e-06
4.46381e-08
5.19944e-06
3.97644e-08
5.20223e-06
3.47149e-08
5.20445e-06
2.9559e-08
2.44729e-08
5.20588e-06
5.64619e-06
2.12758e-08
5.65518e-06
5.05853e-08
5.66311e-06
6.29687e-08
5.67043e-06
6.8189e-08
5.67743e-06
7.06317e-08
5.68394e-06
7.06534e-08
5.68992e-06
6.87358e-08
5.69543e-06
6.57027e-08
5.70052e-06
6.21025e-08
5.70527e-06
5.81769e-08
5.70972e-06
5.40535e-08
5.7139e-06
4.97964e-08
5.71783e-06
4.54392e-08
5.72149e-06
4.09835e-08
5.72482e-06
3.64343e-08
5.72772e-06
3.18063e-08
5.7301e-06
2.71861e-08
2.27343e-08
5.73183e-06
4.40918e-06
1.82053e-08
4.415e-06
4.47733e-08
4.42063e-06
5.73323e-08
4.42589e-06
6.29271e-08
4.43094e-06
6.55847e-08
4.43571e-06
6.58852e-08
4.44014e-06
6.4307e-08
4.44424e-06
6.16017e-08
4.44805e-06
5.82885e-08
4.45162e-06
5.46123e-08
4.45496e-06
5.07097e-08
4.4581e-06
4.66572e-08
4.46104e-06
4.2502e-08
4.46376e-06
3.82632e-08
4.46623e-06
3.39648e-08
4.46839e-06
2.96428e-08
4.47019e-06
2.53847e-08
2.13311e-08
4.47159e-06
5.14268e-06
1.53833e-08
5.14843e-06
3.90281e-08
5.15434e-06
5.14194e-08
5.16001e-06
5.72582e-08
5.16552e-06
6.00796e-08
5.17077e-06
6.06361e-08
5.17568e-06
5.93918e-08
5.18026e-06
5.7019e-08
5.18455e-06
5.4006e-08
5.18856e-06
5.06006e-08
5.19232e-06
4.69452e-08
5.19585e-06
4.31284e-08
5.19914e-06
3.92094e-08
5.20218e-06
3.52244e-08
5.20494e-06
3.1212e-08
5.20736e-06
2.72222e-08
5.2094e-06
2.33369e-08
1.96739e-08
5.21106e-06
5.99835e-06
1.28242e-08
6.00394e-06
3.34394e-08
6.01006e-06
4.53014e-08
6.0161e-06
5.12196e-08
6.02205e-06
5.41289e-08
6.02779e-06
5.48989e-08
6.03321e-06
5.39733e-08
6.03829e-06
5.19328e-08
6.04307e-06
4.92302e-08
6.04756e-06
4.61158e-08
6.05177e-06
4.27354e-08
6.05571e-06
3.91874e-08
6.05937e-06
3.55414e-08
6.06275e-06
3.18476e-08
6.06581e-06
2.81551e-08
6.06851e-06
2.45205e-08
6.07083e-06
2.10156e-08
1.77354e-08
6.07277e-06
6.99656e-06
1.05302e-08
7.00191e-06
2.80932e-08
7.00816e-06
3.90526e-08
7.01452e-06
4.48567e-08
7.02089e-06
4.7764e-08
7.0271e-06
4.86834e-08
7.03303e-06
4.80434e-08
7.03864e-06
4.63277e-08
7.04392e-06
4.39442e-08
7.0489e-06
4.11401e-08
7.05357e-06
3.80638e-08
7.05794e-06
3.48194e-08
7.062e-06
3.14842e-08
7.06573e-06
2.81184e-08
7.0691e-06
2.47767e-08
7.07211e-06
2.15161e-08
7.07473e-06
1.83969e-08
1.54934e-08
7.07697e-06
8.16106e-06
8.4842e-09
8.16611e-06
2.30455e-08
8.1724e-06
3.27637e-08
8.17903e-06
3.82268e-08
8.18577e-06
4.10248e-08
8.19244e-06
4.20129e-08
8.19888e-06
4.1605e-08
8.20501e-06
4.01947e-08
8.21082e-06
3.81338e-08
8.21631e-06
3.56574e-08
8.22146e-06
3.29138e-08
8.22627e-06
3.00081e-08
8.23073e-06
2.70213e-08
8.23483e-06
2.40182e-08
8.23855e-06
2.10549e-08
8.24188e-06
1.81845e-08
8.24482e-06
1.54557e-08
1.29258e-08
8.24739e-06
9.51956e-06
6.65205e-09
9.52429e-06
1.83168e-08
9.53053e-06
2.65236e-08
9.53736e-06
3.13979e-08
9.54443e-06
3.39569e-08
9.55152e-06
3.49202e-08
9.55845e-06
3.46736e-08
9.56511e-06
3.35336e-08
9.57146e-06
3.17892e-08
9.57746e-06
2.96527e-08
9.58311e-06
2.72658e-08
9.58839e-06
2.47304e-08
9.59328e-06
2.2126e-08
9.59779e-06
1.95166e-08
9.60189e-06
1.69556e-08
9.60558e-06
1.44897e-08
9.60888e-06
1.21572e-08
1.00019e-08
9.6118e-06
1.11044e-05
4.9919e-09
1.11088e-05
1.38889e-08
1.11149e-05
2.03937e-08
1.11219e-05
2.4436e-08
1.11292e-05
2.66053e-08
1.11367e-05
2.74397e-08
1.11441e-05
2.72716e-08
1.11513e-05
2.63514e-08
1.11582e-05
2.4905e-08
1.11647e-05
2.31112e-08
1.11709e-05
2.10975e-08
1.11767e-05
1.89567e-08
1.1182e-05
1.67617e-08
1.1187e-05
1.45709e-08
1.11915e-05
1.24314e-08
1.11956e-05
1.03825e-08
1.11993e-05
8.45317e-09
6.67711e-09
1.12026e-05
1.29532e-05
3.45865e-09
1.29573e-05
9.70473e-09
1.29634e-05
1.43838e-08
1.29704e-05
1.7379e-08
1.2978e-05
1.89967e-08
1.29859e-05
1.95897e-08
1.29937e-05
1.94116e-08
1.30014e-05
1.86504e-08
1.30089e-05
1.74716e-08
1.3016e-05
1.60132e-08
1.30227e-05
1.43794e-08
1.3029e-05
1.26485e-08
1.30349e-05
1.08814e-08
1.30403e-05
9.12685e-09
1.30453e-05
7.42359e-09
1.30499e-05
5.80215e-09
1.30541e-05
4.28376e-09
2.89397e-09
1.30579e-05
1.51099e-05
2.00195e-09
1.51139e-05
5.66269e-09
1.51199e-05
8.42601e-09
1.51271e-05
1.0196e-08
1.5135e-05
1.11053e-08
1.51432e-05
1.13431e-08
1.51516e-05
1.10678e-08
1.51598e-05
1.04024e-08
1.51678e-05
9.45434e-09
1.51755e-05
8.31612e-09
1.51829e-05
7.06159e-09
1.51898e-05
5.74798e-09
1.51962e-05
4.42034e-09
1.52022e-05
3.11457e-09
1.52078e-05
1.85878e-09
1.52129e-05
6.74633e-10
1.52176e-05
-4.23796e-10
-1.41777e-09
1.52219e-05
1.76259e-05
5.57348e-10
1.763e-05
1.59325e-09
1.76361e-05
2.33375e-09
1.76435e-05
2.72623e-09
1.76518e-05
2.78937e-09
1.76606e-05
2.57001e-09
1.76696e-05
2.1232e-09
1.76785e-05
1.50107e-09
1.76872e-05
7.52508e-10
1.76956e-05
-7.85402e-11
1.77036e-05
-9.54428e-10
1.77112e-05
-1.84398e-09
1.77183e-05
-2.72159e-09
1.7725e-05
-3.56663e-09
1.77312e-05
-4.36286e-09
1.7737e-05
-5.09792e-09
1.77423e-05
-5.76449e-09
-6.35006e-09
1.77473e-05
1.78276e-05
-8.00084e-10
1.78314e-05
-2.2554e-09
1.78372e-05
-3.44314e-09
1.78443e-05
-4.37678e-09
1.78522e-05
-5.1388e-09
1.78606e-05
-5.8136e-09
1.78692e-05
-6.44403e-09
1.78777e-05
-7.0444e-09
1.78861e-05
-7.62062e-09
1.78942e-05
-8.17495e-09
1.79019e-05
-8.70533e-09
1.79093e-05
-9.20615e-09
1.79162e-05
-9.67106e-09
1.79228e-05
-1.00939e-08
1.79289e-05
-1.04697e-08
1.79346e-05
-1.07941e-08
1.79399e-05
-1.10655e-08
-1.12763e-08
1.79448e-05
1.58826e-05
-2.05877e-09
1.58861e-05
-5.79858e-09
1.58914e-05
-8.69491e-09
1.58978e-05
-1.07478e-08
1.59048e-05
-1.21787e-08
1.59122e-05
-1.32123e-08
1.59197e-05
-1.39739e-08
1.59272e-05
-1.45323e-08
1.59345e-05
-1.49417e-08
1.59416e-05
-1.52457e-08
1.59484e-05
-1.54719e-08
1.59548e-05
-1.5636e-08
1.59609e-05
-1.57471e-08
1.59666e-05
-1.58113e-08
1.5972e-05
-1.58322e-08
1.5977e-05
-1.58117e-08
1.59817e-05
-1.57521e-08
-1.56491e-08
1.5986e-05
1.41499e-05
-3.33816e-09
1.41535e-05
-9.34557e-09
1.41586e-05
-1.38068e-08
1.41646e-05
-1.67742e-08
1.41712e-05
-1.87075e-08
1.41779e-05
-1.99904e-08
1.41848e-05
-2.08111e-08
1.41915e-05
-2.12813e-08
1.41981e-05
-2.15035e-08
1.42044e-05
-2.15583e-08
1.42104e-05
-2.14969e-08
1.42161e-05
-2.13512e-08
1.42215e-05
-2.11433e-08
1.42266e-05
-2.08888e-08
1.42314e-05
-2.05983e-08
1.42358e-05
-2.02778e-08
1.424e-05
-1.99322e-08
-1.95591e-08
1.42439e-05
1.26064e-05
-4.74323e-09
1.26102e-05
-1.31392e-08
1.26154e-05
-1.90246e-08
1.26213e-05
-2.26717e-08
1.26276e-05
-2.49332e-08
1.26339e-05
-2.63563e-08
1.26403e-05
-2.71541e-08
1.26465e-05
-2.74788e-08
1.26524e-05
-2.74831e-08
1.26582e-05
-2.72794e-08
1.26636e-05
-2.6935e-08
1.26687e-05
-2.64939e-08
1.26736e-05
-2.59886e-08
1.26781e-05
-2.54426e-08
1.26824e-05
-2.48713e-08
1.26864e-05
-2.42837e-08
1.26902e-05
-2.36861e-08
-2.30767e-08
1.26937e-05
1.12315e-05
-6.39835e-09
1.12357e-05
-1.73961e-08
1.12412e-05
-2.44996e-08
1.12471e-05
-2.85413e-08
1.12531e-05
-3.09655e-08
1.12592e-05
-3.2426e-08
1.12651e-05
-3.31167e-08
1.12709e-05
-3.32371e-08
1.12764e-05
-3.29939e-08
1.12816e-05
-3.25213e-08
1.12866e-05
-3.18947e-08
1.12913e-05
-3.11669e-08
1.12957e-05
-3.03793e-08
1.12998e-05
-2.95618e-08
1.13036e-05
-2.87331e-08
1.13073e-05
-2.79045e-08
1.13106e-05
-2.70821e-08
-2.62641e-08
1.13138e-05
1.00067e-05
-8.47851e-09
1.00116e-05
-2.23144e-08
1.00174e-05
-3.02988e-08
1.00233e-05
-3.44208e-08
1.00292e-05
-3.68644e-08
1.0035e-05
-3.82667e-08
1.00407e-05
-3.87673e-08
1.00461e-05
-3.86349e-08
1.00512e-05
-3.81237e-08
1.00561e-05
-3.73756e-08
1.00606e-05
-3.64677e-08
1.00649e-05
-3.54599e-08
1.00689e-05
-3.44012e-08
1.00727e-05
-3.33267e-08
1.00762e-05
-3.22585e-08
1.00795e-05
-3.12088e-08
1.00826e-05
-3.01836e-08
-2.91782e-08
1.00856e-05
8.91586e-06
-1.12447e-08
8.92161e-06
-2.80568e-08
8.92772e-06
-3.6411e-08
8.93362e-06
-4.03194e-08
8.93944e-06
-4.26866e-08
8.94512e-06
-4.39409e-08
8.95053e-06
-4.41769e-08
8.95565e-06
-4.37552e-08
8.96049e-06
-4.2963e-08
8.96505e-06
-4.1936e-08
8.96932e-06
-4.07468e-08
8.97333e-06
-3.94624e-08
8.97706e-06
-3.81382e-08
8.98055e-06
-3.68151e-08
8.98381e-06
-3.5518e-08
8.98686e-06
-3.42612e-08
8.98973e-06
-3.30494e-08
-3.18743e-08
8.99243e-06
7.94446e-06
-1.50337e-08
7.95117e-06
-3.47724e-08
7.95758e-06
-4.28159e-08
7.96356e-06
-4.6296e-08
7.9694e-06
-4.8534e-08
7.97502e-06
-4.9555e-08
7.9803e-06
-4.94601e-08
7.98526e-06
-4.87177e-08
7.98993e-06
-4.76296e-08
7.99431e-06
-4.63126e-08
7.9984e-06
-4.48341e-08
8.0022e-06
-4.32665e-08
8.00573e-06
-4.16722e-08
8.00902e-06
-4.00977e-08
8.01207e-06
-3.8573e-08
8.01492e-06
-3.71139e-08
8.0176e-06
-3.57245e-08
-3.43825e-08
8.02011e-06
7.07949e-06
-2.01934e-08
7.08745e-06
-4.27272e-08
7.09434e-06
-4.97072e-08
7.10065e-06
-5.26095e-08
7.10676e-06
-5.46386e-08
7.11252e-06
-5.53101e-08
7.11787e-06
-5.48109e-08
7.12285e-06
-5.37055e-08
7.12752e-06
-5.22912e-08
7.13186e-06
-5.06563e-08
7.13589e-06
-4.88621e-08
7.13961e-06
-4.69862e-08
7.14303e-06
-4.50983e-08
7.14619e-06
-4.3251e-08
7.1491e-06
-4.14817e-08
7.15179e-06
-3.98099e-08
7.15431e-06
-3.82427e-08
-3.67498e-08
7.15668e-06
6.30975e-06
-2.74293e-08
6.31969e-06
-5.26693e-08
6.32784e-06
-5.78532e-08
6.33527e-06
-6.00366e-08
6.34224e-06
-6.16122e-08
6.34864e-06
-6.17038e-08
6.35448e-06
-6.06518e-08
6.35985e-06
-5.90791e-08
6.36481e-06
-5.7249e-08
6.36936e-06
-5.52077e-08
6.37351e-06
-5.30137e-08
6.37728e-06
-5.07479e-08
6.38067e-06
-4.84883e-08
6.38371e-06
-4.62949e-08
6.38644e-06
-4.42133e-08
6.38891e-06
-4.22759e-08
6.39115e-06
-4.04862e-08
-3.87839e-08
6.39319e-06
5.62845e-06
-4.0978e-08
5.64275e-06
-6.69688e-08
5.65462e-06
-6.97143e-08
5.66535e-06
-7.07668e-08
5.67493e-06
-7.11908e-08
5.68331e-06
-7.00804e-08
5.69061e-06
-6.79533e-08
5.69697e-06
-6.54454e-08
5.70248e-06
-6.27514e-08
5.70715e-06
-5.98835e-08
5.71104e-06
-5.69013e-08
5.71419e-06
-5.38929e-08
5.71664e-06
-5.09405e-08
5.71846e-06
-4.81181e-08
5.71973e-06
-4.54819e-08
5.72055e-06
-4.30935e-08
5.72103e-06
-4.0964e-08
-3.9216e-08
5.72146e-06
5.04408e-06
-8.27522e-08
5.07449e-06
-9.73748e-08
5.09547e-06
-9.06879e-08
5.11006e-06
-8.53504e-08
5.11931e-06
-8.04469e-08
5.12409e-06
-7.48551e-08
5.12525e-06
-6.91165e-08
5.12351e-06
-6.37035e-08
5.11939e-06
-5.86311e-08
5.11332e-06
-5.38124e-08
5.10567e-06
-4.92474e-08
5.09675e-06
-4.49765e-08
5.08685e-06
-4.1035e-08
5.07619e-06
-3.74619e-08
5.06508e-06
-3.43664e-08
5.05382e-06
-3.18378e-08
5.04267e-06
-2.98143e-08
-2.86267e-08
5.03208e-06
4.3738e-06
4.27642e-06
4.18574e-06
4.10038e-06
4.01994e-06
3.94508e-06
3.87597e-06
3.81226e-06
3.75363e-06
3.69982e-06
3.65057e-06
3.6056e-06
3.56456e-06
3.5271e-06
3.49273e-06
3.4609e-06
3.43108e-06
3.40245e-06
-1.03657e-08
1.03655e-08
-2.7966e-08
1.75995e-08
-4.77832e-08
1.98168e-08
-6.65946e-08
1.88105e-08
-7.95591e-08
1.29644e-08
-7.88593e-08
-7.00832e-10
-5.91743e-08
-1.96845e-08
-2.15153e-08
-3.766e-08
2.95868e-08
-5.11013e-08
8.89964e-08
-5.94103e-08
1.51164e-07
-6.21669e-08
2.11609e-07
-6.04452e-08
2.67379e-07
-5.57695e-08
3.16589e-07
-4.92098e-08
3.58147e-07
-4.15576e-08
3.91495e-07
-3.33477e-08
4.16348e-07
-2.48522e-08
4.32504e-07
-1.61556e-08
4.39695e-07
-7.19028e-09
4.37481e-07
2.21338e-09
4.25565e-07
1.19171e-08
4.04072e-07
2.14937e-08
3.7351e-07
3.05624e-08
3.34745e-07
3.87651e-08
2.89074e-07
4.56719e-08
2.38331e-07
5.07437e-08
1.84952e-07
5.33794e-08
1.31948e-07
5.30041e-08
8.27388e-08
4.92105e-08
4.0741e-08
4.19983e-08
8.56134e-09
3.2181e-08
-1.31512e-08
2.17134e-08
-2.63928e-08
1.32432e-08
-3.40998e-08
7.70851e-09
-3.91384e-08
5.04048e-09
-4.3644e-08
4.5075e-09
-4.75651e-08
3.92359e-09
-4.72383e-08
-3.24924e-10
-3.8026e-08
-9.20941e-09
-1.71384e-08
-2.08863e-08
1.52826e-08
-3.24177e-08
5.53625e-08
-4.00788e-08
9.61338e-08
-4.07682e-08
1.31211e-07
-3.5075e-08
1.56609e-07
-2.53944e-08
1.71035e-07
-1.44231e-08
1.74957e-07
-3.91764e-09
1.70907e-07
4.05432e-09
1.63675e-07
7.23796e-09
1.57464e-07
6.21687e-09
1.55605e-07
1.86622e-09
1.63738e-07
-8.12619e-09
1.78251e-07
-1.45059e-08
1.78814e-07
-5.5635e-10
1.5227e-07
2.65496e-08
8.89564e-08
6.33201e-08
-1.68525e-08
1.05813e-07
-1.6034e-07
1.43491e-07
-3.29625e-07
1.69286e-07
-5.14568e-07
1.84944e-07
-7.06267e-07
1.91699e-07
-8.97122e-07
1.90855e-07
-1.08096e-06
1.83839e-07
-1.25349e-06
1.72529e-07
-1.41228e-06
1.58786e-07
-1.55627e-06
1.43993e-07
-1.68556e-06
1.29286e-07
-1.80097e-06
1.15408e-07
-1.90372e-06
1.02756e-07
-1.99524e-06
9.15141e-08
-2.07694e-06
8.17047e-08
-2.15019e-06
7.32504e-08
-2.21621e-06
6.60152e-08
-2.27605e-06
5.98387e-08
-2.33061e-06
5.45593e-08
-2.38063e-06
5.00228e-08
-2.42673e-06
4.60992e-08
-2.4694e-06
4.26728e-08
-2.50905e-06
3.96496e-08
-2.546e-06
3.695e-08
-2.58051e-06
3.451e-08
-2.61279e-06
3.22778e-08
-2.643e-06
3.02125e-08
-2.67128e-06
2.82807e-08
-2.69773e-06
2.64561e-08
-2.72245e-06
2.47171e-08
-2.7455e-06
2.30462e-08
-2.76692e-06
2.14284e-08
-2.78677e-06
1.98511e-08
-2.80508e-06
1.83029e-08
-2.82185e-06
1.67737e-08
-2.8371e-06
1.52531e-08
-2.85083e-06
1.37315e-08
-2.86303e-06
1.21985e-08
-2.87368e-06
1.0643e-08
-2.88273e-06
9.0536e-09
-2.89015e-06
7.41873e-09
-2.89587e-06
5.72658e-09
-2.89983e-06
3.96439e-09
-2.90196e-06
2.13458e-09
-2.90227e-06
3.12815e-10
-2.90096e-06
-1.30678e-09
-2.89825e-06
-2.70965e-09
-2.8942e-06
-4.04289e-09
-2.88884e-06
-5.35449e-09
-2.88218e-06
-6.6611e-09
-2.87421e-06
-7.96654e-09
-2.86494e-06
-9.27084e-09
-2.85436e-06
-1.05734e-08
-2.84249e-06
-1.18724e-08
-2.82932e-06
-1.31668e-08
-2.81486e-06
-1.44547e-08
-2.79913e-06
-1.5735e-08
-2.78212e-06
-1.70061e-08
-2.76385e-06
-1.82675e-08
-2.74433e-06
-1.95178e-08
-2.72358e-06
-2.07568e-08
-2.70159e-06
-2.19832e-08
-2.6784e-06
-2.3197e-08
-2.654e-06
-2.43966e-08
-2.62842e-06
-2.55817e-08
-2.60167e-06
-2.67504e-08
-2.57377e-06
-2.79021e-08
-2.54474e-06
-2.90348e-08
-2.51459e-06
-3.01477e-08
-2.48336e-06
-3.12385e-08
-2.45106e-06
-3.23037e-08
-2.41772e-06
-3.33414e-08
-2.38338e-06
-3.43472e-08
-2.34808e-06
-3.53105e-08
-2.31186e-06
-3.62256e-08
-2.27478e-06
-3.70844e-08
-2.23684e-06
-3.79461e-08
-2.19799e-06
-3.88576e-08
-2.15826e-06
-3.97365e-08
-2.11772e-06
-4.05487e-08
-2.07641e-06
-4.13242e-08
-2.03436e-06
-4.20629e-08
-1.9916e-06
-4.27675e-08
-1.94818e-06
-4.34382e-08
-1.90412e-06
-4.40746e-08
-1.85946e-06
-4.46759e-08
-1.81423e-06
-4.52405e-08
-1.76848e-06
-4.5769e-08
-1.72223e-06
-4.62604e-08
-1.67551e-06
-4.67174e-08
-1.62837e-06
-4.71412e-08
-1.58082e-06
-4.7538e-08
-1.53289e-06
-4.79123e-08
-1.4846e-06
-4.82694e-08
-1.43597e-06
-4.86115e-08
-1.38701e-06
-4.89367e-08
-1.33774e-06
-4.92499e-08
-1.28818e-06
-4.95334e-08
-1.23836e-06
-4.98007e-08
-1.1883e-06
-5.00347e-08
-1.13803e-06
-5.0246e-08
-1.08758e-06
-5.04303e-08
-1.03696e-06
-5.05929e-08
-9.86188e-07
-5.07428e-08
-9.35277e-07
-5.08838e-08
-8.84219e-07
-5.10309e-08
-8.33001e-07
-5.11909e-08
-7.81601e-07
-5.13715e-08
-7.29998e-07
-5.15747e-08
-6.78171e-07
-5.17978e-08
-6.26107e-07
-5.20353e-08
-5.73799e-07
-5.22792e-08
-5.21247e-07
-5.25224e-08
-4.68459e-07
-5.2759e-08
-4.15446e-07
-5.29842e-08
-3.62229e-07
-5.31868e-08
-3.08856e-07
-5.33434e-08
-2.55417e-07
-5.34099e-08
-2.02085e-07
-5.33032e-08
-1.49224e-07
-5.2832e-08
-9.72058e-08
-5.19909e-08
-4.77748e-08
-4.94046e-08
-8.0643e-10
-4.69442e-08
-2.57856e-08
2.50025e-08
-4.11931e-09
1.44843e-08
-1.23026e-08
2.57809e-08
-1.8459e-08
2.59727e-08
-1.56457e-08
1.59953e-08
4.10736e-09
-6.78876e-09
4.13362e-08
-3.79308e-08
9.26859e-08
-7.10336e-08
1.52826e-07
-9.78004e-08
2.15851e-07
-1.14126e-07
2.76685e-07
-1.20245e-07
3.32608e-07
-1.1809e-07
3.82296e-07
-1.10133e-07
4.25218e-07
-9.86909e-08
4.61437e-07
-8.54286e-08
4.91251e-07
-7.1371e-08
5.15022e-07
-5.71191e-08
5.33142e-07
-4.29718e-08
5.46036e-07
-2.90485e-08
5.54226e-07
-1.53799e-08
5.58331e-07
-1.89109e-09
5.58625e-07
1.1623e-08
5.54756e-07
2.53641e-08
5.4598e-07
3.93387e-08
5.31392e-07
5.33534e-08
5.10069e-07
6.6996e-08
4.81223e-07
7.95893e-08
4.44414e-07
9.01889e-08
3.99756e-07
9.76629e-08
3.48069e-07
1.00899e-07
2.9097e-07
9.90973e-08
2.31011e-07
9.21407e-08
1.71891e-07
8.08347e-08
1.18607e-07
6.65289e-08
7.57001e-08
5.06163e-08
4.61395e-08
3.46045e-08
3.11039e-08
1.95462e-08
3.04583e-08
4.57442e-09
4.21648e-08
-1.20284e-08
6.42301e-08
-3.12709e-08
9.55872e-08
-5.22417e-08
1.31969e-07
-6.87972e-08
1.65942e-07
-7.40503e-08
1.92436e-07
-6.72604e-08
2.09201e-07
-5.18381e-08
2.15805e-07
-3.19954e-08
2.13946e-07
-1.25612e-08
2.05369e-07
4.66311e-09
1.92037e-07
1.73916e-08
1.78654e-07
2.06282e-08
1.60863e-07
2.40146e-08
1.21219e-07
4.15188e-08
3.93635e-08
7.37389e-08
-9.79954e-08
1.22861e-07
-2.79054e-07
1.80508e-07
-4.84565e-07
2.32063e-07
-6.98417e-07
2.77174e-07
-9.08594e-07
3.15991e-07
-1.10921e-06
3.44106e-07
-1.29742e-06
3.57502e-07
-1.46933e-06
3.5685e-07
-1.62234e-06
3.44713e-07
-1.7556e-06
3.24116e-07
-1.86995e-06
2.9818e-07
-1.96721e-06
2.69796e-07
-2.04976e-06
2.41331e-07
-2.12016e-06
2.14397e-07
-2.18081e-06
1.89929e-07
-2.23373e-06
1.6833e-07
-2.28059e-06
1.49621e-07
-2.3227e-06
1.33618e-07
-2.36101e-06
1.20019e-07
-2.39625e-06
1.08487e-07
-2.42892e-06
9.86856e-08
-2.45939e-06
9.03086e-08
-2.48793e-06
8.30941e-08
-2.51472e-06
7.68185e-08
-2.53992e-06
7.12984e-08
-2.56363e-06
6.63822e-08
-2.58593e-06
6.19484e-08
-2.60688e-06
5.7899e-08
-2.62652e-06
5.41572e-08
-2.64491e-06
5.06611e-08
-2.66206e-06
4.73616e-08
-2.67799e-06
4.42194e-08
-2.69274e-06
4.1203e-08
-2.70631e-06
3.82866e-08
-2.71871e-06
3.54493e-08
-2.72995e-06
3.26732e-08
-2.74005e-06
2.99431e-08
-2.74899e-06
2.7246e-08
-2.75678e-06
2.457e-08
-2.76344e-06
2.19051e-08
-2.76895e-06
1.92425e-08
-2.77332e-06
1.65749e-08
-2.77658e-06
1.38972e-08
-2.77873e-06
1.12068e-08
-2.77981e-06
8.50455e-09
-2.77988e-06
5.79591e-09
-2.77901e-06
3.0946e-09
-2.7773e-06
4.29847e-10
-2.77482e-06
-2.16606e-09
-2.7714e-06
-4.7236e-09
-2.76681e-06
-7.29213e-09
-2.76099e-06
-9.86905e-09
-2.75389e-06
-1.24477e-08
-2.74552e-06
-1.50293e-08
-2.73587e-06
-1.7613e-08
-2.72494e-06
-2.0197e-08
-2.71273e-06
-2.27788e-08
-2.69925e-06
-2.53552e-08
-2.68449e-06
-2.7923e-08
-2.66847e-06
-3.04789e-08
-2.65118e-06
-3.30201e-08
-2.63264e-06
-3.55437e-08
-2.61286e-06
-3.80476e-08
-2.59185e-06
-4.05299e-08
-2.56962e-06
-4.29894e-08
-2.54618e-06
-4.54243e-08
-2.52154e-06
-4.78333e-08
-2.49572e-06
-5.02142e-08
-2.46874e-06
-5.25653e-08
-2.44061e-06
-5.48836e-08
-2.41135e-06
-5.71666e-08
-2.38097e-06
-5.94113e-08
-2.34951e-06
-6.16149e-08
-2.31697e-06
-6.37742e-08
-2.28339e-06
-6.58857e-08
-2.24879e-06
-6.79467e-08
-2.21319e-06
-6.99538e-08
-2.1766e-06
-7.19025e-08
-2.13904e-06
-7.37898e-08
-2.10052e-06
-7.56148e-08
-2.06107e-06
-7.74016e-08
-2.02077e-06
-7.91585e-08
-1.97966e-06
-8.08512e-08
-1.93775e-06
-8.24661e-08
-1.89507e-06
-8.40097e-08
-1.85166e-06
-8.54831e-08
-1.80755e-06
-8.68893e-08
-1.76277e-06
-8.82294e-08
-1.71735e-06
-8.95026e-08
-1.67133e-06
-9.07073e-08
-1.62474e-06
-9.18417e-08
-1.57761e-06
-9.29047e-08
-1.52998e-06
-9.38958e-08
-1.48188e-06
-9.48166e-08
-1.43335e-06
-9.56715e-08
-1.38441e-06
-9.64686e-08
-1.33509e-06
-9.72183e-08
-1.28542e-06
-9.79296e-08
-1.23541e-06
-9.8609e-08
-1.18508e-06
-9.92542e-08
-1.13444e-06
-9.98711e-08
-1.08352e-06
-1.00441e-07
-1.03233e-06
-1.00971e-07
-9.80901e-07
-1.01448e-07
-9.29253e-07
-1.01879e-07
-8.77403e-07
-1.02262e-07
-8.25377e-07
-1.02603e-07
-7.73186e-07
-1.02915e-07
-7.20842e-07
-1.03211e-07
-6.68342e-07
-1.03513e-07
-6.15675e-07
-1.03839e-07
-5.62825e-07
-1.04203e-07
-5.0977e-07
-1.04611e-07
-4.5649e-07
-1.05059e-07
-4.02968e-07
-1.05539e-07
-3.49194e-07
-1.06035e-07
-2.95165e-07
-1.06534e-07
-2.40881e-07
-1.07024e-07
-1.8635e-07
-1.07497e-07
-1.31587e-07
-1.07932e-07
-7.6625e-08
-1.08287e-07
-2.15444e-08
-1.08473e-07
3.35181e-08
-1.08349e-07
8.8348e-08
-1.07646e-07
1.42448e-07
-1.06077e-07
1.95538e-07
-1.02481e-07
2.44326e-07
-9.57205e-08
-7.35791e-08
2.9213e-07
1.38876e-09
1.30949e-08
4.38451e-09
2.27832e-08
1.56402e-08
1.4716e-08
4.57747e-08
-1.41404e-08
9.74549e-08
-5.8469e-08
1.64087e-07
-1.04563e-07
2.33367e-07
-1.40314e-07
2.96489e-07
-1.60922e-07
3.49705e-07
-1.67342e-07
3.926e-07
-1.63139e-07
4.26592e-07
-1.52082e-07
4.53581e-07
-1.37122e-07
4.75133e-07
-1.20242e-07
4.92346e-07
-1.02641e-07
5.05951e-07
-8.49758e-08
5.16424e-07
-6.75915e-08
5.24087e-07
-5.06346e-08
5.2918e-07
-3.41412e-08
5.31901e-07
-1.80998e-08
5.32482e-07
-2.47202e-09
5.31284e-07
1.28221e-08
5.28717e-07
2.79319e-08
5.25058e-07
4.2998e-08
5.20317e-07
5.80956e-08
5.14132e-07
7.31817e-08
5.05699e-07
8.8023e-08
4.93769e-07
1.02119e-07
4.7678e-07
1.14652e-07
4.5319e-07
1.24489e-07
4.21973e-07
1.30315e-07
3.8324e-07
1.30875e-07
3.38778e-07
1.25297e-07
2.92005e-07
1.13303e-07
2.4729e-07
9.53319e-08
2.09347e-07
7.25486e-08
1.82486e-07
4.64086e-08
1.69149e-07
1.79136e-08
1.69118e-07
-1.19956e-08
1.80518e-07
-4.26701e-08
1.97134e-07
-6.88568e-08
2.10028e-07
-8.16896e-08
2.13077e-07
-7.7098e-08
2.05595e-07
-5.97779e-08
1.88966e-07
-3.52075e-08
1.64336e-07
-7.36337e-09
1.33865e-07
1.79129e-08
9.60282e-08
4.25039e-08
4.02064e-08
7.32183e-08
-4.92128e-08
1.10053e-07
-1.82906e-07
1.57712e-07
-3.57219e-07
2.15836e-07
-5.59926e-07
2.76448e-07
-7.71619e-07
3.34555e-07
-9.76481e-07
3.85371e-07
-1.16848e-06
4.24067e-07
-1.34112e-06
4.49809e-07
-1.48808e-06
4.62954e-07
-1.60752e-06
4.63544e-07
-1.70247e-06
4.52453e-07
-1.77736e-06
4.31742e-07
-1.83683e-06
4.04184e-07
-1.88534e-06
3.72623e-07
-1.92671e-06
3.39545e-07
-1.96383e-06
3.06921e-07
-1.99862e-06
2.76116e-07
-2.03216e-06
2.47943e-07
-2.065e-06
2.22762e-07
-2.09728e-06
2.00612e-07
-2.12898e-06
1.81323e-07
-2.15999e-06
1.64624e-07
-2.19016e-06
1.50194e-07
-2.21938e-06
1.37709e-07
-2.24755e-06
1.26856e-07
-2.27461e-06
1.17364e-07
-2.30051e-06
1.08992e-07
-2.32523e-06
1.01538e-07
-2.34876e-06
9.48323e-08
-2.37111e-06
8.87329e-08
-2.39229e-06
8.31243e-08
-2.4123e-06
7.79117e-08
-2.43116e-06
7.30191e-08
-2.44888e-06
6.83846e-08
-2.46548e-06
6.39584e-08
-2.48096e-06
5.97001e-08
-2.49533e-06
5.55768e-08
-2.50861e-06
5.15618e-08
-2.52079e-06
4.76329e-08
-2.53189e-06
4.37711e-08
-2.5419e-06
3.99604e-08
-2.55084e-06
3.61863e-08
-2.55871e-06
3.24364e-08
-2.56551e-06
2.87e-08
-2.57123e-06
2.49685e-08
-2.57589e-06
2.12355e-08
-2.57949e-06
1.74972e-08
-2.58204e-06
1.37529e-08
-2.58353e-06
1.00047e-08
-2.58399e-06
6.25754e-09
-2.58342e-06
2.51909e-09
-2.58178e-06
-1.20247e-09
-2.57903e-06
-4.91155e-09
-2.57512e-06
-8.63681e-09
-2.57001e-06
-1.23962e-08
-2.5637e-06
-1.61806e-08
-2.55616e-06
-1.99811e-08
-2.5474e-06
-2.37933e-08
-2.5374e-06
-2.7613e-08
-2.52616e-06
-3.14361e-08
-2.51368e-06
-3.52581e-08
-2.49996e-06
-3.90744e-08
-2.485e-06
-4.28796e-08
-2.46881e-06
-4.6669e-08
-2.45139e-06
-5.04374e-08
-2.43275e-06
-5.41808e-08
-2.4129e-06
-5.78955e-08
-2.39185e-06
-6.15786e-08
-2.36962e-06
-6.52279e-08
-2.3462e-06
-6.88413e-08
-2.32162e-06
-7.24161e-08
-2.29588e-06
-7.59498e-08
-2.26901e-06
-7.94389e-08
-2.24101e-06
-8.28796e-08
-2.21191e-06
-8.62677e-08
-2.18173e-06
-8.95988e-08
-2.15048e-06
-9.28684e-08
-2.11818e-06
-9.60723e-08
-2.08486e-06
-9.92063e-08
-2.05054e-06
-1.02267e-07
-2.01525e-06
-1.05253e-07
-1.97899e-06
-1.08159e-07
-1.9418e-06
-1.10982e-07
-1.9037e-06
-1.13724e-07
-1.86471e-06
-1.1639e-07
-1.8249e-06
-1.18977e-07
-1.78429e-06
-1.21468e-07
-1.7429e-06
-1.23861e-07
-1.70076e-06
-1.26154e-07
-1.6579e-06
-1.28347e-07
-1.61435e-06
-1.30441e-07
-1.57015e-06
-1.32438e-07
-1.52532e-06
-1.34337e-07
-1.4799e-06
-1.36137e-07
-1.43391e-06
-1.37835e-07
-1.38739e-06
-1.3943e-07
-1.34037e-06
-1.4092e-07
-1.29288e-06
-1.42306e-07
-1.24496e-06
-1.43592e-07
-1.19663e-06
-1.4479e-07
-1.14793e-06
-1.45912e-07
-1.09888e-06
-1.46974e-07
-1.0495e-06
-1.47983e-07
-9.99809e-07
-1.48941e-07
-9.49819e-07
-1.49854e-07
-8.99548e-07
-1.50705e-07
-8.49016e-07
-1.51495e-07
-7.98239e-07
-1.52219e-07
-7.47238e-07
-1.52872e-07
-6.96029e-07
-1.53465e-07
-6.44631e-07
-1.53994e-07
-5.93059e-07
-1.54481e-07
-5.4132e-07
-1.54943e-07
-4.89417e-07
-1.5541e-07
-4.3734e-07
-1.55909e-07
-3.85076e-07
-1.56461e-07
-3.32605e-07
-1.57076e-07
-2.79906e-07
-1.57752e-07
-2.26963e-07
-1.58475e-07
-1.73764e-07
-1.59228e-07
-1.203e-07
-1.59991e-07
-6.65718e-08
-1.60747e-07
-1.25824e-08
-1.61481e-07
4.16563e-08
-1.62166e-07
9.61226e-08
-1.62748e-07
1.50774e-07
-1.63119e-07
2.05519e-07
-1.63089e-07
2.60202e-07
-1.62324e-07
3.14512e-07
-1.60382e-07
3.68197e-07
-1.56162e-07
4.20333e-07
-1.47852e-07
-1.27205e-07
4.73963e-07
-8.95239e-10
1.39893e-08
8.37857e-09
1.35071e-08
4.43016e-08
-2.12079e-08
1.10259e-07
-8.0099e-08
1.90184e-07
-1.38394e-07
2.65256e-07
-1.79635e-07
3.24994e-07
-2.00052e-07
3.6759e-07
-2.03518e-07
3.96117e-07
-1.95869e-07
4.1493e-07
-1.81953e-07
4.27743e-07
-1.64894e-07
4.37047e-07
-1.46427e-07
4.44254e-07
-1.27448e-07
4.50033e-07
-1.08421e-07
4.54643e-07
-8.95854e-08
4.58127e-07
-7.10749e-08
4.60458e-07
-5.29646e-08
4.61609e-07
-3.52922e-08
4.61585e-07
-1.80746e-08
4.60429e-07
-1.31555e-09
4.58248e-07
1.50046e-08
4.5525e-07
3.09305e-08
4.51735e-07
4.65134e-08
4.48031e-07
6.18007e-08
4.44404e-07
7.68092e-08
4.40942e-07
9.14865e-08
4.3741e-07
1.05652e-07
4.33128e-07
1.18935e-07
4.26938e-07
1.30679e-07
4.1739e-07
1.39864e-07
4.03153e-07
1.45113e-07
3.83569e-07
1.44881e-07
3.59089e-07
1.37784e-07
3.31484e-07
1.22937e-07
3.03694e-07
1.00339e-07
2.79183e-07
7.09205e-08
2.60667e-07
3.64308e-08
2.49137e-07
-4.64301e-10
2.40732e-07
-3.42638e-08
2.27332e-07
-5.54565e-08
2.03198e-07
-5.75549e-08
1.67835e-07
-4.17339e-08
1.22661e-07
-1.46026e-08
6.80299e-08
1.94247e-08
2.10517e-13
6.06689e-08
-9.03715e-08
1.08287e-07
-2.09206e-07
1.61341e-07
-3.56949e-07
2.20963e-07
-5.31707e-07
2.84813e-07
-7.22981e-07
3.48987e-07
-9.15818e-07
4.08675e-07
-1.09867e-06
4.59305e-07
-1.26171e-06
4.97591e-07
-1.39864e-06
5.22307e-07
-1.50867e-06
5.34092e-07
-1.59324e-06
5.34378e-07
-1.65493e-06
5.24652e-07
-1.69817e-06
5.06779e-07
-1.72825e-06
4.82533e-07
-1.75036e-06
4.53853e-07
-1.76875e-06
4.22576e-07
-1.78646e-06
3.90328e-07
-1.80533e-06
3.58418e-07
-1.82625e-06
3.27839e-07
-1.84938e-06
2.99251e-07
-1.87448e-06
2.73036e-07
-1.90106e-06
2.49344e-07
-1.9286e-06
2.28157e-07
-1.95662e-06
2.09339e-07
-1.98469e-06
1.92688e-07
-2.01246e-06
1.77967e-07
-2.03968e-06
1.64928e-07
-2.06616e-06
1.53333e-07
-2.09176e-06
1.42965e-07
-2.11639e-06
1.33628e-07
-2.14001e-06
1.2515e-07
-2.16256e-06
1.17386e-07
-2.18404e-06
1.10208e-07
-2.20442e-06
1.03513e-07
-2.22373e-06
9.72126e-08
-2.24194e-06
9.12343e-08
-2.25907e-06
8.55184e-08
-2.27513e-06
8.00158e-08
-2.29012e-06
7.46866e-08
-2.30404e-06
6.9498e-08
-2.3169e-06
6.44229e-08
-2.3287e-06
5.94391e-08
-2.33946e-06
5.45273e-08
-2.34917e-06
4.96704e-08
-2.35783e-06
4.48533e-08
-2.36546e-06
4.00618e-08
-2.37204e-06
3.52839e-08
-2.37758e-06
3.05098e-08
-2.38208e-06
2.57321e-08
-2.38553e-06
2.09459e-08
-2.38792e-06
1.6149e-08
-2.38926e-06
1.13414e-08
-2.38952e-06
6.52419e-09
-2.3887e-06
1.69921e-09
-2.38677e-06
-3.1343e-09
-2.38369e-06
-7.98488e-09
-2.37946e-06
-1.28684e-08
-2.37406e-06
-1.77919e-08
-2.36749e-06
-2.27485e-08
-2.35974e-06
-2.77299e-08
-2.3508e-06
-3.27301e-08
-2.34067e-06
-3.77431e-08
-2.32934e-06
-4.27633e-08
-2.31682e-06
-4.77845e-08
-2.30309e-06