/*--------------------------------*- C++ -*----------------------------------*\
| =========                 |                                                 |
| \\      /  F ield         | OpenFOAM: The Open Source CFD Toolbox           |
|  \\    /   O peration     | Version:  4.x                                   |
|   \\  /    A nd           | Web:      www.OpenFOAM.org                      |
|    \\/     M anipulation  |                                                 |
\*---------------------------------------------------------------------------*/
FoamFile
{
    version     2.0;
    format      ascii;
    class       volVectorField;
    location    "406";
    object      U;
}
// * * * * * * * * * * * * * * * * * * * * * * * * * * * * * * * * * * * * * //

dimensions      [0 1 -1 0 0 0 0];

internalField   nonuniform List<vector> 
12225
(
(9.75806 0.0428727 0)
(9.32702 0.0779199 0)
(8.90779 0.0848419 0)
(8.51288 0.0818186 0)
(8.15933 0.0752578 0)
(7.84968 0.0669703 0)
(7.57988 0.0581451 0)
(7.3461 0.0495121 0)
(7.14495 0.0417749 0)
(6.97061 0.0353126 0)
(6.81854 0.0298838 0)
(6.6868 0.025219 0)
(6.57246 0.0210488 0)
(6.47473 0.0172414 0)
(6.392 0.013548 0)
(6.32443 0.00952555 0)
(6.27473 0.00530235 0)
(6.23834 -0.00630963 0)
(10.095 0.0584749 0)
(10.2378 0.0931757 0)
(10.3128 0.093033 0)
(10.3324 0.0893953 0)
(10.3205 0.0865515 0)
(10.2865 0.0830579 0)
(10.2358 0.0788125 0)
(10.173 0.0743099 0)
(10.1026 0.0697961 0)
(10.0294 0.0654541 0)
(9.95637 0.0613963 0)
(9.88432 0.0574242 0)
(9.81471 0.0534306 0)
(9.74772 0.0492605 0)
(9.68462 0.0447385 0)
(9.62511 0.039314 0)
(9.57115 0.0321783 0)
(9.51675 0.0200061 0)
(10.013 0.0416631 0)
(10.0734 0.0645641 0)
(10.1232 0.067388 0)
(10.1596 0.0717187 0)
(10.1891 0.0759229 0)
(10.2141 0.0777524 0)
(10.2328 0.0775095 0)
(10.2453 0.0761172 0)
(10.2521 0.0741142 0)
(10.2546 0.0717846 0)
(10.2535 0.0691297 0)
(10.2498 0.0661648 0)
(10.2439 0.0628777 0)
(10.2365 0.0592011 0)
(10.2281 0.0549435 0)
(10.2186 0.0495404 0)
(10.2085 0.0425291 0)
(10.1947 0.0314925 0)
(10.0066 0.0296197 0)
(10.0396 0.0547901 0)
(10.0709 0.0618768 0)
(10.0936 0.0671599 0)
(10.1131 0.0708848 0)
(10.1316 0.0722411 0)
(10.1483 0.0718978 0)
(10.1626 0.0707224 0)
(10.1749 0.0691061 0)
(10.1855 0.0671783 0)
(10.1946 0.0649715 0)
(10.2025 0.0625007 0)
(10.2093 0.0597149 0)
(10.2153 0.0565113 0)
(10.2205 0.0526861 0)
(10.2249 0.0478376 0)
(10.228 0.0417041 0)
(10.2288 0.0337237 0)
(10.0046 0.0233522 0)
(10.0277 0.0486822 0)
(10.0521 0.0569739 0)
(10.0699 0.061929 0)
(10.0852 0.0654434 0)
(10.0999 0.0670334 0)
(10.1136 0.0670998 0)
(10.1258 0.0663068 0)
(10.1367 0.0650126 0)
(10.1466 0.0633517 0)
(10.1558 0.0613817 0)
(10.1642 0.0591029 0)
(10.1721 0.0564658 0)
(10.1794 0.0533752 0)
(10.1861 0.0496819 0)
(10.1922 0.045151 0)
(10.1972 0.0397039 0)
(10.2005 0.0333652 0)
(10.0031 0.0187181 0)
(10.0204 0.0422623 0)
(10.0407 0.0513409 0)
(10.0563 0.0564952 0)
(10.0697 0.0602275 0)
(10.0827 0.0621679 0)
(10.0948 0.0625629 0)
(10.1058 0.0620163 0)
(10.1158 0.060911 0)
(10.1249 0.0593955 0)
(10.1335 0.057533 0)
(10.1416 0.0553286 0)
(10.1491 0.0527541 0)
(10.1562 0.0497385 0)
(10.1628 0.0461886 0)
(10.1687 0.0419834 0)
(10.1737 0.0371359 0)
(10.1774 0.0318104 0)
(10.0021 0.0150445 0)
(10.0152 0.0360309 0)
(10.0321 0.0457354 0)
(10.0462 0.0512055 0)
(10.0585 0.0550544 0)
(10.0703 0.0571973 0)
(10.0815 0.0578322 0)
(10.0917 0.0574965 0)
(10.1011 0.0565634 0)
(10.1098 0.0551823 0)
(10.1179 0.0534221 0)
(10.1256 0.0513007 0)
(10.1327 0.0488103 0)
(10.1395 0.0459072 0)
(10.1457 0.0425443 0)
(10.1513 0.0386777 0)
(10.156 0.0343685 0)
(10.1597 0.0298096 0)
(10.0015 0.0124562 0)
(10.0119 0.031229 0)
(10.0263 0.041122 0)
(10.0393 0.0467471 0)
(10.0507 0.0506015 0)
(10.0617 0.052841 0)
(10.0723 0.0536395 0)
(10.082 0.0534685 0)
(10.0909 0.0526736 0)
(10.0993 0.0514037 0)
(10.1071 0.0497335 0)
(10.1145 0.0476928 0)
(10.1214 0.0452904 0)
(10.1278 0.0425067 0)
(10.1337 0.0393276 0)
(10.139 0.0357532 0)
(10.1435 0.0318634 0)
(10.1472 0.0278334 0)
(10.0012 0.0105317 0)
(10.0096 0.0273874 0)
(10.022 0.0371464 0)
(10.0339 0.0428253 0)
(10.0447 0.0466605 0)
(10.055 0.0489472 0)
(10.0649 0.049858 0)
(10.0742 0.0498094 0)
(10.0828 0.0491204 0)
(10.0909 0.0479413 0)
(10.0985 0.0463496 0)
(10.1055 0.0443867 0)
(10.1122 0.0420733 0)
(10.1184 0.0394101 0)
(10.124 0.0364049 0)
(10.1291 0.0330846 0)
(10.1334 0.0295331 0)
(10.1371 0.0259054 0)
(10.0009 0.00883853 0)
(10.0076 0.0236517 0)
(10.0181 0.0329901 0)
(10.0289 0.0386153 0)
(10.0389 0.0423774 0)
(10.0486 0.0446719 0)
(10.0579 0.0456725 0)
(10.0667 0.0457315 0)
(10.0749 0.0451418 0)
(10.0826 0.0440543 0)
(10.0899 0.04255 0)
(10.0967 0.0406798 0)
(10.103 0.0384757 0)
(10.1089 0.0359568 0)
(10.1143 0.0331485 0)
(10.1191 0.030095 0)
(10.1233 0.0268772 0)
(10.1269 0.0236274 0)
(10.0007 0.00732909 0)
(10.006 0.0200612 0)
(10.0147 0.0287256 0)
(10.0243 0.0341613 0)
(10.0335 0.0377754 0)
(10.0425 0.0400198 0)
(10.0512 0.0410732 0)
(10.0595 0.0412205 0)
(10.0673 0.0407209 0)
(10.0746 0.0397246 0)
(10.0815 0.0383166 0)
(10.088 0.0365544 0)
(10.094 0.0344808 0)
(10.0996 0.0321296 0)
(10.1047 0.029539 0)
(10.1092 0.0267619 0)
(10.1133 0.0238715 0)
(10.1168 0.0209767 0)
(10.0005 0.00597791 0)
(10.0047 0.0166557 0)
(10.0119 0.0244138 0)
(10.0203 0.0294986 0)
(10.0286 0.0328804 0)
(10.0368 0.0350064 0)
(10.0449 0.0360612 0)
(10.0526 0.0362679 0)
(10.06 0.0358459 0)
(10.0669 0.0349397 0)
(10.0734 0.0336368 0)
(10.0795 0.0319992 0)
(10.0852 0.0300776 0)
(10.0905 0.0279158 0)
(10.0953 0.0255597 0)
(10.0996 0.0230639 0)
(10.1034 0.0204913 0)
(10.1069 0.0179294 0)
(10.0004 0.0047676 0)
(10.0037 0.0134601 0)
(10.0095 0.0201182 0)
(10.0168 0.0246745 0)
(10.0243 0.027725 0)
(10.0317 0.0296546 0)
(10.0391 0.0306453 0)
(10.0463 0.0308702 0)
(10.0531 0.0305062 0)
(10.0596 0.0296848 0)
(10.0658 0.028493 0)
(10.0715 0.0269948 0)
(10.0769 0.0252442 0)
(10.0818 0.02329 0)
(10.0863 0.0211804 0)
(10.0904 0.0189669 0)
(10.0941 0.0167018 0)
(10.0974 0.0144543 0)
(10.0003 0.00367466 0)
(10.0029 0.0104713 0)
(10.0077 0.015889 0)
(10.0138 0.019741 0)
(10.0205 0.0223461 0)
(10.0272 0.0239922 0)
(10.0339 0.0248428 0)
(10.0405 0.0250321 0)
(10.0469 0.0246959 0)
(10.0529 0.0239465 0)
(10.0587 0.0228652 0)
(10.0641 0.0215143 0)
(10.0691 0.0199468 0)
(10.0737 0.0182114 0)
(10.078 0.0163538 0)
(10.0819 0.0144197 0)
(10.0854 0.012451 0)
(10.0886 0.0105026 0)
(10.0002 0.00267209 0)
(10.0023 0.00766112 0)
(10.0062 0.0117483 0)
(10.0115 0.0147393 0)
(10.0173 0.0167759 0)
(10.0233 0.018044 0)
(10.0294 0.0186726 0)
(10.0354 0.0187625 0)
(10.0413 0.0184131 0)
(10.0469 0.0177129 0)
(10.0523 0.0167321 0)
(10.0573 0.0155264 0)
(10.062 0.0141441 0)
(10.0664 0.0126288 0)
(10.0705 0.0110207 0)
(10.0742 0.00935792 0)
(10.0775 0.0076729 0)
(10.0806 0.00600903 0)
(10.0002 0.00173071 0)
(10.0019 0.00497806 0)
(10.0052 0.00767549 0)
(10.0097 0.0096738 0)
(10.0148 0.0110188 0)
(10.0202 0.0118099 0)
(10.0257 0.0121318 0)
(10.0312 0.0120531 0)
(10.0366 0.0116409 0)
(10.0419 0.0109579 0)
(10.0468 0.0100577 0)
(10.0515 0.00898522 0)
(10.056 0.00777969 0)
(10.0601 0.00647661 0)
(10.0639 0.00510819 0)
(10.0675 0.00370396 0)
(10.0707 0.00228802 0)
(10.0737 0.000894149 0)
(10.0002 0.000814621 0)
(10.0016 0.00234123 0)
(10.0045 0.00359693 0)
(10.0084 0.00449489 0)
(10.013 0.0050355 0)
(10.0179 0.00525238 0)
(10.023 0.00518421 0)
(10.0281 0.00486693 0)
(10.0331 0.00433726 0)
(10.038 0.00363157 0)
(10.0426 0.00278332 0)
(10.0471 0.00182237 0)
(10.0512 0.000775805 0)
(10.0552 -0.000331557 0)
(10.0588 -0.00147711 0)
(10.0622 -0.00264026 0)
(10.0654 -0.00380469 0)
(10.0683 -0.00494521 0)
(10.0002 -7.28874e-05 0)
(10.0015 -0.000220926 0)
(10.0042 -0.000392158 0)
(10.0079 -0.000612887 0)
(10.0122 -0.000909623 0)
(10.0168 -0.00130238 0)
(10.0216 -0.00179631 0)
(10.0264 -0.00238723 0)
(10.0312 -0.00306675 0)
(10.0359 -0.00382438 0)
(10.0403 -0.00464794 0)
(10.0446 -0.00552413 0)
(10.0486 -0.00643935 0)
(10.0524 -0.00738019 0)
(10.0559 -0.00833391 0)
(10.0592 -0.00928836 0)
(10.0623 -0.0102342 0)
(10.0652 -0.0111535 0)
(10.0002 -0.000903346 0)
(10.0016 -0.00261581 0)
(10.0043 -0.00410427 0)
(10.0081 -0.00534407 0)
(10.0124 -0.00639751 0)
(10.017 -0.007341 0)
(10.0217 -0.0082203 0)
(10.0265 -0.00905966 0)
(10.0312 -0.00987683 0)
(10.0357 -0.0106856 0)
(10.0401 -0.0114936 0)
(10.0442 -0.0123029 0)
(10.0482 -0.013112 0)
(10.0519 -0.013918 0)
(10.0554 -0.0147166 0)
(10.0587 -0.0155028 0)
(10.0617 -0.0162724 0)
(10.0646 -0.0170132 0)
(10.0002 -0.00170801 0)
(10.0018 -0.00491737 0)
(10.0048 -0.00760637 0)
(10.0089 -0.00972124 0)
(10.0135 -0.0114009 0)
(10.0182 -0.0127934 0)
(10.023 -0.0139802 0)
(10.0279 -0.015009 0)
(10.0326 -0.0159232 0)
(10.0372 -0.0167597 0)
(10.0415 -0.017543 0)
(10.0457 -0.0182876 0)
(10.0496 -0.0190026 0)
(10.0533 -0.0196937 0)
(10.0568 -0.0203634 0)
(10.0601 -0.021012 0)
(10.0631 -0.0216395 0)
(10.066 -0.0222375 0)
(10.0002 -0.00255626 0)
(10.0022 -0.00729724 0)
(10.0058 -0.0111023 0)
(10.0104 -0.0139463 0)
(10.0153 -0.0161209 0)
(10.0203 -0.0178632 0)
(10.0254 -0.019278 0)
(10.0304 -0.0204324 0)
(10.0352 -0.0213974 0)
(10.0399 -0.0222314 0)
(10.0443 -0.0229726 0)
(10.0485 -0.0236453 0)
(10.0525 -0.0242674 0)
(10.0562 -0.0248518 0)
(10.0597 -0.0254069 0)
(10.063 -0.0259369 0)
(10.0661 -0.0264445 0)
(10.069 -0.0269238 0)
(10.0003 -0.00351909 0)
(10.0028 -0.00989977 0)
(10.0072 -0.0147251 0)
(10.0126 -0.0181309 0)
(10.018 -0.0206711 0)
(10.0234 -0.0226693 0)
(10.0288 -0.0242322 0)
(10.034 -0.0254481 0)
(10.039 -0.0264188 0)
(10.0438 -0.0272213 0)
(10.0484 -0.0279017 0)
(10.0527 -0.0284919 0)
(10.0567 -0.0290174 0)
(10.0605 -0.0294978 0)
(10.064 -0.0299461 0)
(10.0674 -0.0303698 0)
(10.0705 -0.0307735 0)
(10.0734 -0.0311526 0)
(10.0004 -0.00468813 0)
(10.0038 -0.0128575 0)
(10.0094 -0.0185461 0)
(10.0156 -0.0223164 0)
(10.0216 -0.0251062 0)
(10.0275 -0.0272782 0)
(10.0332 -0.0289116 0)
(10.0387 -0.0301283 0)
(10.044 -0.0310661 0)
(10.049 -0.0318132 0)
(10.0537 -0.0324177 0)
(10.0582 -0.0329166 0)
(10.0623 -0.0333424 0)
(10.0662 -0.0337206 0)
(10.0699 -0.0340681 0)
(10.0733 -0.0343952 0)
(10.0765 -0.0347075 0)
(10.0795 -0.0350004 0)
(10.0006 -0.00618966 0)
(10.0054 -0.0162963 0)
(10.0125 -0.022593 0)
(10.0198 -0.0264986 0)
(10.0264 -0.0294418 0)
(10.0327 -0.0317259 0)
(10.0389 -0.0333714 0)
(10.0449 -0.0345462 0)
(10.0505 -0.0354239 0)
(10.0558 -0.0360965 0)
(10.0607 -0.0366105 0)
(10.0654 -0.0370081 0)
(10.0697 -0.0373284 0)
(10.0738 -0.0376028 0)
(10.0775 -0.0378527 0)
(10.0811 -0.038091 0)
(10.0844 -0.0383239 0)
(10.0875 -0.0385447 0)
(10.001 -0.00816766 0)
(10.0079 -0.0203099 0)
(10.0169 -0.0269186 0)
(10.0253 -0.0307483 0)
(10.0327 -0.033742 0)
(10.0397 -0.0360584 0)
(10.0466 -0.0376639 0)
(10.0531 -0.0387763 0)
(10.0591 -0.0395862 0)
(10.0648 -0.040177 0)
(10.0702 -0.0405907 0)
(10.0751 -0.0408752 0)
(10.0798 -0.0410765 0)
(10.084 -0.0412337 0)
(10.088 -0.0413737 0)
(10.0917 -0.0415143 0)
(10.0952 -0.0416623 0)
(10.0985 -0.0418037 0)
(10.0015 -0.0108386 0)
(10.0116 -0.0249098 0)
(10.0233 -0.0315717 0)
(10.0333 -0.035331 0)
(10.0417 -0.0382974 0)
(10.0498 -0.0404712 0)
(10.0578 -0.0418952 0)
(10.0651 -0.0428676 0)
(10.0719 -0.0435726 0)
(10.0783 -0.0440656 0)
(10.0842 -0.044377 0)
(10.0897 -0.0445552 0)
(10.0947 -0.0446502 0)
(10.0994 -0.0447061 0)
(10.1037 -0.0447563 0)
(10.1076 -0.0448228 0)
(10.1113 -0.0449166 0)
(10.1147 -0.0450091 0)
(10.0027 -0.0152145 0)
(10.0177 -0.0302034 0)
(10.034 -0.0360716 0)
(10.0469 -0.0399623 0)
(10.0577 -0.0431836 0)
(10.0681 -0.0452875 0)
(10.0779 -0.0464847 0)
(10.0868 -0.0472185 0)
(10.095 -0.0476918 0)
(10.1025 -0.0479429 0)
(10.1094 -0.0480039 0)
(10.1157 -0.0479324 0)
(10.1214 -0.0477861 0)
(10.1265 -0.0476175 0)
(10.1311 -0.0474689 0)
(10.1352 -0.0473673 0)
(10.1389 -0.0473251 0)
(10.1422 -0.047282 0)
(10.008 -0.0229951 0)
(10.0348 -0.0380114 0)
(10.0614 -0.0404887 0)
(10.0816 -0.0433359 0)
(10.0987 -0.0468007 0)
(10.1145 -0.0493381 0)
(10.1286 -0.05091 0)
(10.1409 -0.0519542 0)
(10.1514 -0.0526565 0)
(10.1604 -0.0530252 0)
(10.168 -0.0531007 0)
(10.1743 -0.0529555 0)
(10.1793 -0.0526728 0)
(10.1831 -0.0523239 0)
(10.1858 -0.0519934 0)
(10.1876 -0.0517476 0)
(10.1888 -0.0516021 0)
(10.1892 -0.0515889 0)
(10.0341 -0.0335228 0)
(10.1158 -0.0583191 0)
(10.1716 -0.0601364 0)
(10.2048 -0.0590619 0)
(10.2266 -0.0585622 0)
(10.2402 -0.0578427 0)
(10.2462 -0.0568295 0)
(10.2455 -0.0558058 0)
(10.2394 -0.0548144 0)
(10.229 -0.0537616 0)
(10.2151 -0.052609 0)
(10.1984 -0.0513771 0)
(10.1795 -0.0501177 0)
(10.1589 -0.0489033 0)
(10.137 -0.0478028 0)
(10.1145 -0.0469247 0)
(10.092 -0.0463174 0)
(10.07 -0.0463505 0)
(9.89907 -0.0265871 0)
(9.70003 -0.0519303 0)
(9.49851 -0.0594523 0)
(9.29817 -0.0616321 0)
(9.10882 -0.061685 0)
(8.93421 -0.0601411 0)
(8.77329 -0.0576221 0)
(8.62446 -0.0546812 0)
(8.4871 -0.0515763 0)
(8.36091 -0.0483696 0)
(8.24534 -0.0451228 0)
(8.13974 -0.0419162 0)
(8.04332 -0.0387978 0)
(7.95538 -0.0358107 0)
(7.8751 -0.033087 0)
(7.8011 -0.030812 0)
(7.73198 -0.0290118 0)
(7.66755 -0.0279855 0)
(-0.00345226 0.00958819 0)
(-0.0160214 0.0157479 0)
(-0.0330513 0.0172871 0)
(-0.051866 0.0150485 0)
(-0.0689277 0.00814133 0)
(-0.0759875 -0.00287228 0)
(-0.0634895 -0.017102 -6.55779e-19)
(-0.0356898 -0.0340219 7.60498e-19)
(0.00435157 -0.0488765 0)
(0.0523808 -0.0578773 5.9306e-19)
(0.105598 -0.0609035 0)
(0.160367 -0.0594681 0)
(0.212783 -0.0549588 0)
(0.260106 -0.0483653 -2.32612e-19)
(0.300935 -0.0404988 0)
(0.334612 -0.031952 0)
(0.360809 -0.0230691 1.84546e-19)
(0.379364 -0.0139913 0)
(0.390159 -0.00464943 0)
(0.393085 0.00519876 0)
(0.386873 0.015472 -1.7784e-19)
(0.371968 0.0256442 0)
(0.348841 0.0349266 -1.91543e-19)
(0.317947 0.0425071 0)
(0.280126 0.0475991 0)
(0.236719 0.0494172 -2.57026e-19)
(0.189619 0.0472808 0)
(0.141243 0.0407967 3.71427e-19)
(0.0944683 0.0301075 0)
(0.0525266 0.0163481 -6.58239e-19)
(0.0188228 0.00249652 0)
(-0.00418891 -0.00660619 0)
(-0.0187237 -0.00831304 0)
(-0.0276727 -0.00492118 0)
(-0.033065 -5.64892e-05 0)
(-0.0374855 0.00320062 9.46028e-19)
(-0.04236 0.00328507 0)
(-0.0453306 -0.000173597 -1.81987e-18)
(-0.0406569 -0.00687165 0)
(-0.0257556 -0.0157535 2.00872e-18)
(-0.000664228 -0.0251701 0)
(0.0321672 -0.032282 0)
(0.0683371 -0.0340475 -1.1641e-18)
(0.102974 -0.0304712 0)
(0.131203 -0.0231887 -8.22861e-19)
(0.149928 -0.0144058 7.73114e-19)
(0.158748 -0.00589859 0)
(0.158293 0.000692588 7.68046e-19)
(0.152131 0.00361004 7.88127e-19)
(0.145221 0.00347323 0)
(0.140648 0.00211776 0)
(0.144274 -0.00544975 0)
(0.154862 -0.0211585 0)
(0.162886 -0.0396699 0)
(0.154349 -0.0522749 -7.58586e-19)
(0.118348 -0.0444956 0)
(0.0522715 -0.0124783 1.04135e-18)
(-0.0690853 0.0365102 0)
(-0.219656 0.0773632 0)
(-0.384108 0.106366 -2.84783e-19)
(-0.558716 0.124681 0)
(-0.73536 0.133512 1.73972e-19)
(-0.90818 0.133765 0)
(-1.07252 0.127952 0)
(-1.2252 0.118794 0)
(-1.36477 0.107908 -1.08822e-19)
(-1.49075 0.096633 0)
(-1.60377 0.0857873 0)
(-1.7048 0.0758231 -9.23733e-20)
(-1.79502 0.0669669 0)
(-1.87575 0.0592667 -8.61634e-20)
(-1.94826 0.052671 0)
(-2.01372 0.0470667 0)
(-2.07315 0.0423215 0)
(-2.12745 0.0383019 7.84146e-20)
(-2.17735 0.0348789 0)
(-2.22347 0.0319467 0)
(-2.2663 0.0294108 7.44804e-20)
(-2.30625 0.0271957 7.33521e-20)
(-2.34365 0.0252387 0)
(-2.37875 0.0234889 7.12718e-20)
(-2.41178 0.0219063 0)
(-2.44288 0.0204588 1.38721e-19)
(-2.4722 0.0191209 0)
(-2.49985 0.017872 1.35124e-19)
(-2.52591 0.0166953 0)
(-2.55045 0.0155771 -1.31676e-19)
(-2.57352 0.0145054 0)
(-2.59515 0.0134697 0)
(-2.61539 0.0124602 0)
(-2.63425 0.0114675 1.25013e-19)
(-2.65173 0.0104823 0)
(-2.66784 0.00949525 -1.21727e-19)
(-2.68257 0.00849691 0)
(-2.6959 0.00747842 1.18437e-19)
(-2.7078 0.00643209 1.16786e-19)
(-2.71823 0.00535273 1.1513e-19)
(-2.72713 0.0042404 0)
(-2.73444 0.00310829 0)
(-2.74011 0.00199982 0)
(-2.74407 0.000999907 0)
(-2.74627 0.000185577 0)
(-2.74719 -0.00049876 0)
(-2.74686 -0.00114626 0)
(-2.74529 -0.00177742 0)
(-2.7425 -0.00240024 -9.94573e-20)
(-2.73848 -0.00301631 -9.75446e-20)
(-2.73324 -0.00362575 0)
(-2.72676 -0.00422851 0)
(-2.71905 -0.00482391 0)
(-2.71011 -0.0054117 -8.94549e-20)
(-2.69993 -0.0059912 0)
(-2.68853 -0.00656224 0)
(-2.6759 -0.00712428 0)
(-2.66205 -0.00767734 0)
(-2.64699 -0.00822104 7.822e-20)
(-2.63071 -0.0087555 0)
(-2.61324 -0.00928036 0)
(-2.59457 -0.00979572 -7.07884e-20)
(-2.57471 -0.0103011 6.81838e-20)
(-2.55368 -0.0107964 0)
(-2.53149 -0.0112809 6.27703e-20)
(-2.50813 -0.0117545 0)
(-2.48364 -0.0122161 -5.70691e-20)
(-2.45801 -0.0126647 0)
(-2.43128 -0.0130968 0)
(-2.40345 -0.0135034 0)
(-2.37455 -0.0138795 0)
(-2.34459 -0.0142114 0)
(-2.31361 -0.0144642 7.60717e-20)
(-2.28167 -0.014595 6.9105e-20)
(-2.2488 -0.0145741 0)
(-2.21503 -0.0145826 0)
(-2.1803 -0.014822 0)
(-2.14461 -0.0151456 -3.93108e-20)
(-2.10802 -0.015425 0)
(-2.07056 -0.0156922 0)
(-2.03228 -0.0159461 0)
(-1.9932 -0.0161884 -5.84297e-21)
(-1.95334 -0.0164175 -3.18778e-21)
(-1.91275 -0.0166344 0)
(-1.87144 -0.0168385 0)
(-1.82945 -0.0170299 -3.20818e-20)
(-1.78682 -0.0172092 -4.23652e-20)
(-1.74356 -0.0173768 0)
(-1.69971 -0.0175345 0)
(-1.6553 -0.0176835 7.54264e-20)
(-1.61035 -0.0178266 -8.72553e-20)
(-1.56489 -0.0179658 0)
(-1.51893 -0.0181029 0)
(-1.4725 -0.0182389 -1.2553e-19)
(-1.42559 -0.0183737 0)
(-1.37822 -0.0185074 0)
(-1.33042 -0.0186326 -1.68697e-19)
(-1.28217 -0.0187603 0)
(-1.23355 -0.0188775 -2.00741e-19)
(-1.18454 -0.0189962 0)
(-1.13519 -0.0191102 0)
(-1.08549 -0.0192282 0)
(-1.03549 -0.0193511 2.74689e-19)
(-0.985177 -0.0194824 0)
(-0.934552 -0.0196297 0)
(-0.883602 -0.0197957 0)
(-0.832304 -0.0199848 0)
(-0.780632 -0.0201985 0)
(-0.728558 -0.0204368 0)
(-0.67606 -0.020699 4.50895e-19)
(-0.623123 -0.0209835 4.83325e-19)
(-0.56974 -0.0212896 0)
(-0.51591 -0.0216171 0)
(-0.461636 -0.021966 0)
(-0.406929 -0.0223336 -6.42088e-19)
(-0.351817 -0.0227118 0)
(-0.29636 -0.0230847 1.49102e-18)
(-0.240666 -0.0234359 -1.61121e-18)
(-0.185015 -0.0237035 -1.74518e-18)
(-0.129967 -0.0237838 1.89508e-18)
(-0.0765888 -0.0232171 -2.06454e-18)
(-0.0188058 -0.0220526 2.25658e-18)
(-0.00260085 -0.0126378 0)
(-3.85512e-05 0.0254784 0)
(-0.00670928 0.0446142 0)
(-0.0156237 0.0480343 1.99075e-18)
(-0.0206871 0.0411365 0)
(-0.0121642 0.0218516 -2.44026e-18)
(0.0181575 -0.0145239 -1.79063e-18)
(0.0593497 -0.0648945 -5.02657e-19)
(0.109471 -0.112157 -3.33965e-19)
(0.164126 -0.14624 0)
(0.219121 -0.164258 -2.01678e-19)
(0.271178 -0.167718 0)
(0.318241 -0.160323 0)
(0.359472 -0.146031 2.80543e-19)
(0.394771 -0.127811 1.31302e-19)
(0.424314 -0.107633 -2.51975e-19)
(0.448322 -0.0867626 -2.44822e-19)
(0.467137 -0.0658738 -1.20219e-19)
(0.481128 -0.0452473 0)
(0.490615 -0.0249322 0)
(0.496103 -0.00472729 0)
(0.498499 0.0155589 -1.23166e-19)
(0.497413 0.0357555 0)
(0.492275 0.0555704 3.78341e-19)
(0.48236 0.0745302 0)
(0.466806 0.0919167 0)
(0.444777 0.106693 1.393e-19)
(0.415632 0.117525 0)
(0.379168 0.122914 -1.59518e-19)
(0.335803 0.121541 -3.53816e-19)
(0.286688 0.112714 2.02099e-19)
(0.233827 0.0969562 0)
(0.180099 0.0763174 0)
(0.128821 0.0536315 0)
(0.0842948 0.0319578 -1.03916e-18)
(0.0508193 0.0145193 -1.41646e-18)
(0.0306444 0.00291622 -9.3171e-19)
(0.0232026 -0.00610295 0)
(0.0300447 -0.0181257 2.03821e-18)
(0.0465373 -0.0353914 0)
(0.0715848 -0.0574061 -1.0597e-18)
(0.10323 -0.0782131 0)
(0.135993 -0.0890766 0)
(0.163428 -0.0861404 5.10755e-19)
(0.182922 -0.0719467 0)
(0.193477 -0.0512725 1.38002e-18)
(0.195685 -0.0292832 -4.78746e-19)
(0.190682 -0.00930611 0)
(0.180967 0.00479033 -5.45534e-19)
(0.168963 0.00873006 -5.94818e-19)
(0.154962 0.00187752 0)
(0.132482 -0.010114 0)
(0.0872597 -0.0148209 0)
(-0.00747053 0.0117534 0)
(-0.166503 0.0783809 0)
(-0.349044 0.14891 2.86784e-19)
(-0.539818 0.213195 4.01285e-19)
(-0.731329 0.269376 -1.52702e-19)
(-0.920381 0.312435 0)
(-1.10036 0.337512 2.11406e-19)
(-1.26683 0.345325 -9.40032e-20)
(-1.41687 0.339268 0)
(-1.54881 0.322807 -7.74434e-20)
(-1.6629 0.299532 0)
(-1.76034 0.272603 0)
(-1.84325 0.24463 -1.34933e-19)
(-1.91401 0.217478 6.48183e-20)
(-1.97492 0.192338 -1.27125e-19)
(-2.02805 0.169822 1.24135e-19)
(-2.07506 0.150103 6.05042e-20)
(-2.11728 0.133108 0)
(-2.15574 0.118608 5.84146e-20)
(-2.19117 0.106303 0)
(-2.22411 0.0958756 0)
(-2.25496 0.0870163 0)
(-2.28397 0.0794516 5.50833e-20)
(-2.31137 0.0729414 0)
(-2.3373 0.0672859 1.07145e-19)
(-2.36186 0.0623197 -1.58617e-19)
(-2.38514 0.0579093 -5.22055e-20)
(-2.4072 0.0539464 0)
(-2.42808 0.050345 -5.08935e-20)
(-2.44783 0.0470369 0)
(-2.46647 0.0439679 -9.92454e-20)
(-2.48402 0.0410949 0)
(-2.5005 0.0383836 -9.67548e-20)
(-2.51593 0.0358062 1.90936e-19)
(-2.53031 0.0333405 9.42892e-20)
(-2.54364 0.0309676 0)
(-2.55594 0.0286722 0)
(-2.56721 0.0264408 0)
(-2.57744 0.0242614 -8.9352e-20)
(-2.58663 0.0221235 0)
(-2.59479 0.0200172 8.68488e-20)
(-2.60192 0.0179333 0)
(-2.60801 0.0158632 -2.5293e-19)
(-2.61309 0.0137989 -8.30203e-20)
(-2.61718 0.0117337 -8.17222e-20)
(-2.6203 0.00966081 0)
(-2.62252 0.00757833 0)
(-2.62392 0.00550567 0)
(-2.62459 0.00350524 0)
(-2.6246 0.00165423 0)
(-2.62355 -7.42044e-05 -1.47244e-19)
(-2.62136 -0.00174972 -1.44356e-19)
(-2.61799 -0.00339111 0)
(-2.61343 -0.0050078 6.91356e-20)
(-2.60767 -0.0066016 6.76131e-20)
(-2.60069 -0.00817235 0)
(-2.5925 -0.00971902 1.29213e-19)
(-2.5831 -0.01124 0)
(-2.57248 -0.0127338 -6.15303e-20)
(-2.56064 -0.014199 0)
(-2.54758 -0.0156342 0)
(-2.53332 -0.0170384 1.12751e-19)
(-2.51784 -0.018411 0)
(-2.50117 -0.0197513 -5.26994e-20)
(-2.48329 -0.0210593 0)
(-2.46423 -0.0223343 0)
(-2.44399 -0.0235764 -4.75898e-20)
(-2.42257 -0.0247848 -4.52776e-20)
(-2.39999 -0.0259591 0)
(-2.37625 -0.0270984 4.18203e-20)
(-2.35138 -0.028202 0)
(-2.32537 -0.029269 -3.77948e-20)
(-2.29826 -0.030299 -7.09453e-20)
(-2.27005 -0.0312915 0)
(-2.24075 -0.0322467 0)
(-2.2104 -0.0331649 0)
(-2.179 -0.0340485 0)
(-2.14658 -0.0349029 -4.84386e-20)
(-2.11313 -0.0357377 -1.3258e-19)
(-2.07865 -0.0365547 0)
(-2.04318 -0.0373383 0)
(-2.00676 -0.0380598 0)
(-1.96945 -0.0387125 2.44164e-20)
(-1.93126 -0.0393115 0)
(-1.89221 -0.0398646 0)
(-1.85233 -0.0403738 -1.93035e-20)
(-1.81164 -0.0408418 -5.01964e-21)
(-1.77018 -0.0412707 1.74421e-21)
(-1.72797 -0.0416606 0)
(-1.68504 -0.0420116 0)
(-1.64142 -0.0423232 1.8534e-20)
(-1.59713 -0.0425962 -2.28738e-20)
(-1.55221 -0.0428311 0)
(-1.50669 -0.0430302 0)
(-1.46059 -0.0431964 -4.2291e-20)
(-1.41394 -0.0433351 1.43954e-19)
(-1.36678 -0.0434519 0)
(-1.31911 -0.0435519 0)
(-1.27096 -0.043638 6.77373e-20)
(-1.22234 -0.0437086 0)
(-1.17325 -0.0437693 1.60707e-19)
(-1.12373 -0.0438059 -8.64553e-20)
(-1.07376 -0.0438282 0)
(-1.0234 -0.0438262 1.02219e-19)
(-0.972636 -0.0438058 2.17361e-19)
(-0.921509 -0.0437661 0)
(-0.870014 -0.04371 0)
(-0.818187 -0.0436464 -1.32264e-19)
(-0.766025 -0.0435795 0)
(-0.713534 -0.0435218 2.94725e-19)
(-0.660701 -0.0434806 0)
(-0.607507 -0.043462 0)
(-0.553927 -0.0434687 0)
(-0.499935 -0.0434989 0)
(-0.445506 -0.0435487 -1.91053e-19)
(-0.390621 -0.0436122 -2.00212e-19)
(-0.335269 -0.0436841 0)
(-0.279444 -0.0437605 0)
(-0.223144 -0.0438388 0)
(-0.166375 -0.0439136 2.39221e-19)
(-0.109152 -0.0439685 0)
(-0.0515259 -0.0439655 -5.20762e-19)
(0.00640603 -0.0438276 5.36322e-19)
(0.0644294 -0.0434219 5.41382e-19)
(0.122415 -0.0426664 5.39078e-19)
(0.178704 -0.0410734 5.44785e-19)
(0.238388 -0.0379937 5.46361e-19)
(0.276166 -0.0277777 0)
(0.00102935 0.0274877 0)
(0.00197826 0.0507906 0)
(0.0057124 0.04945 -2.17514e-18)
(0.0213588 0.0235592 -1.80412e-18)
(0.0586112 -0.03558 1.10625e-18)
(0.114382 -0.114128 6.67777e-19)
(0.177181 -0.186672 -3.14661e-22)
(0.236951 -0.236978 0)
(0.288649 -0.261262 0)
(0.331001 -0.263516 0)
(0.364763 -0.250221 0)
(0.39156 -0.227417 0)
(0.412994 -0.199666 -6.41856e-19)
(0.430245 -0.169997 0)
(0.444054 -0.140152 1.99634e-19)
(0.45491 -0.111042 1.9608e-19)
(0.463166 -0.0830294 0)
(0.469047 -0.0561887 0)
(0.472736 -0.0304791 0)
(0.474365 -0.00579046 0)
(0.474279 0.0181067 2.01245e-19)
(0.472803 0.0415861 0)
(0.470238 0.0649379 -2.06055e-19)
(0.466779 0.088213 0)
(0.462293 0.111132 0)
(0.456265 0.133001 0)
(0.447757 0.152676 -4.72018e-19)
(0.435444 0.168582 0)
(0.417836 0.178878 2.60609e-19)
(0.39365 0.181799 -5.58152e-19)
(0.362343 0.176131 0)
(0.324642 0.161708 0)
(0.282822 0.139502 0)
(0.240626 0.111435 4.5256e-19)
(0.202519 0.0800381 5.38915e-19)
(0.172732 0.0475996 0)
(0.15473 0.0146064 0)
(0.149152 -0.0200033 -1.55392e-18)
(0.155748 -0.0563766 -1.3486e-18)
(0.170565 -0.0915027 1.09694e-18)
(0.185755 -0.114874 0)
(0.193095 -0.116872 0)
(0.190544 -0.100361 0)
(0.179281 -0.0725541 0)
(0.160496 -0.0405409 -7.32132e-19)
(0.135738 -0.0121472 -8.08533e-19)
(0.105323 0.0120223 9.25515e-19)
(0.0673584 0.0326565 0)
(0.00893502 0.0472025 0)
(-0.093505 0.0778646 0)
(-0.238997 0.139847 0)
(-0.413934 0.21578 -4.32805e-19)
(-0.603781 0.294393 0)
(-0.796288 0.368749 0)
(-0.979939 0.430797 -2.09342e-19)
(-1.14805 0.477641 -1.79427e-19)
(-1.29472 0.508467 0)
(-1.41634 0.521378 2.90232e-19)
(-1.51437 0.516833 -1.32669e-19)
(-1.59207 0.497462 1.24149e-19)
(-1.65357 0.467074 0)
(-1.70318 0.429716 0)
(-1.74474 0.389088 0)
(-1.78138 0.348257 0)
(-1.81526 0.309423 1.00784e-19)
(-1.84773 0.273944 1.97588e-19)
(-1.87947 0.242451 9.5487e-20)
(-1.91076 0.215059 -9.32388e-20)
(-1.94163 0.191544 0)
(-1.97199 0.171508 1.79113e-19)
(-2.00171 0.154488 1.75488e-19)
(-2.03067 0.14002 1.72147e-19)
(-2.05876 0.127663 -1.69014e-19)
(-2.0859 0.117037 0)
(-2.11204 0.107821 -2.44973e-19)
(-2.13716 0.0997449 0)
(-2.16124 0.0925946 7.90325e-20)
(-2.18427 0.08619 7.79197e-20)
(-2.20626 0.0803889 0)
(-2.22722 0.075077 0)
(-2.24716 0.0701644 1.48905e-19)
(-2.26609 0.0655791 0)
(-2.28401 0.061264 1.44606e-19)
(-2.30093 0.0571732 0)
(-2.31686 0.0532701 -1.40434e-19)
(-2.33181 0.049525 -2.76866e-19)
(-2.34579 0.0459134 0)
(-2.35879 0.042415 0)
(-2.37081 0.0390127 0)
(-2.38187 0.0356919 -1.30275e-19)
(-2.39196 0.03244 0)
(-2.40108 0.0292468 -1.2624e-19)
(-2.40923 0.026104 0)
(-2.41641 0.0230057 0)
(-2.42263 0.0199489 2.40319e-19)
(-2.42788 0.0169335 0)
(-2.43216 0.0139637 1.16063e-19)
(-2.4355 0.0110469 0)
(-2.43788 0.00819378 1.11939e-19)
(-2.43931 0.00541227 0)
(-2.43973 0.00269331 0)
(-2.4391 -2.79761e-06 0)
(-2.43736 -0.00269393 3.09617e-19)
(-2.43449 -0.00536291 1.0088e-19)
(-2.43049 -0.00800174 0)
(-2.42533 -0.0106086 0)
(-2.41901 -0.0131815 0)
(-2.41151 -0.0157184 0)
(-2.40284 -0.0182168 -8.921e-20)
(-2.39298 -0.020674 1.7398e-19)
(-2.38194 -0.0230872 8.43517e-20)
(-2.36971 -0.0254538 -1.64201e-19)
(-2.3563 -0.0277713 -1.59222e-19)
(-2.3417 -0.0300379 -7.68416e-20)
(-2.32593 -0.032252 0)
(-2.30898 -0.0344128 -1.43908e-19)
(-2.29086 -0.0365197 0)
(-2.27158 -0.0385722 1.33374e-19)
(-2.25114 -0.0405697 6.36908e-20)
(-2.22956 -0.0425114 0)
(-2.20684 -0.0443962 -1.17072e-19)
(-2.18298 -0.0462227 -5.54013e-20)
(-2.15801 -0.0479893 0)
(-2.13194 -0.0496944 -5.04512e-20)
(-2.10478 -0.0513366 1.41185e-19)
(-2.07654 -0.0529142 0)
(-2.04724 -0.0544258 0)
(-2.0169 -0.0558705 0)
(-1.98554 -0.0572469 0)
(-1.95317 -0.0585535 6.44632e-20)
(-1.9198 -0.0597907 5.73818e-20)
(-1.88546 -0.0609624 0)
(-1.85016 -0.0620795 0)
(-1.81394 -0.0631376 0)
(-1.77685 -0.0641223 0)
(-1.73889 -0.0650335 0)
(-1.70009 -0.0658732 0)
(-1.66048 -0.066643 1.21434e-20)
(-1.62007 -0.0673458 -1.0158e-21)
(-1.5789 -0.0679841 0)
(-1.537 -0.0685586 0)
(-1.49438 -0.0690695 -1.39583e-20)
(-1.45107 -0.0695168 0)
(-1.4071 -0.069901 2.89165e-20)
(-1.3625 -0.0702226 3.48739e-20)
(-1.3173 -0.0704841 0)
(-1.27152 -0.0706895 0)
(-1.22519 -0.0708459 -5.73607e-20)
(-1.17835 -0.0709618 -1.26983e-19)
(-1.13101 -0.0710448 0)
(-1.08319 -0.0711004 0)
(-1.0349 -0.0711287 0)
(-0.986162 -0.0711336 -9.40015e-20)
(-0.936981 -0.071106 1.01483e-19)
(-0.887379 -0.0710472 0)
(-0.837362 -0.0709548 2.30862e-19)
(-0.786951 -0.0708276 1.21888e-19)
(-0.736157 -0.0706717 -2.61402e-19)
(-0.684996 -0.0704854 0)
(-0.633481 -0.0702823 0)
(-0.581623 -0.0700687 -3.07887e-19)
(-0.52942 -0.0698609 -1.62925e-19)
(-0.476867 -0.0696706 0)
(-0.423946 -0.0695071 0)
(-0.370635 -0.0693744 0)
(-0.316908 -0.0692701 0)
(-0.26274 -0.0691882 -4.02825e-19)
(-0.208112 -0.0691195 0)
(-0.153008 -0.0690553 0)
(-0.0974192 -0.068988 0)
(-0.0413404 -0.0689118 0)
(0.0152224 -0.0688133 0)
(0.0722629 -0.0686683 0)
(0.129756 -0.0684295 -4.95209e-19)
(0.187651 -0.0680074 0)
(0.245782 -0.0672503 0)
(0.304134 -0.0659833 -1.03093e-18)
(0.361333 -0.0636937 5.21188e-19)
(0.421512 -0.0596247 -5.32376e-19)
(0.469089 -0.0492603 5.43216e-19)
(-0.00119535 0.0267552 0)
(0.000417396 0.0407499 4.78859e-18)
(0.0167951 0.0119107 0)
(0.0631276 -0.0701223 9.92845e-19)
(0.131877 -0.175116 0)
(0.203892 -0.265276 0)
(0.264953 -0.321316 -3.08877e-19)
(0.310075 -0.342591 0)
(0.340775 -0.337586 0)
(0.360959 -0.316316 0)
(0.37447 -0.286556 0)
(0.384062 -0.25319 0)
(0.391373 -0.218884 7.17678e-19)
(0.397245 -0.184946 3.48955e-19)
(0.402035 -0.151944 -3.42593e-19)
(0.405841 -0.12012 0)
(0.408645 -0.0895622 0)
(0.410411 -0.0602673 0)
(0.411124 -0.0321947 0)
(0.41079 -0.00528173 0)
(0.4095 0.0205871 3.57808e-19)
(0.407362 0.045566 3.60537e-19)
(0.404601 0.0698213 -3.65458e-19)
(0.401521 0.0935 3.73177e-19)
(0.398414 0.116662 0)
(0.395476 0.139184 0)
(0.392672 0.160638 4.15053e-19)
(0.389624 0.180196 0)
(0.385503 0.196548 0)
(0.379064 0.207934 4.86018e-19)
(0.368905 0.212324 5.16632e-19)
(0.353969 0.207838 5.53742e-19)
(0.334061 0.193196 0)
(0.310207 0.168133 0)
(0.284633 0.133653 -7.50819e-19)
(0.260507 0.0917218 0)
(0.241049 0.0447876 0)
(0.228182 -0.00483289 1.09323e-18)
(0.221105 -0.0550837 -9.64866e-19)
(0.212854 -0.0943703 8.04941e-19)
(0.196084 -0.108403 0)
(0.168823 -0.0955579 0)
(0.132414 -0.0660987 1.34804e-18)
(0.0869364 -0.0281347 0)
(0.0339379 0.0155029 1.7111e-18)
(-0.0329917 0.0600571 2.58474e-18)
(-0.128232 0.109002 -2.02311e-18)
(-0.249495 0.172496 1.01307e-18)
(-0.397108 0.247624 0)
(-0.56658 0.330157 0)
(-0.744372 0.414224 4.84283e-19)
(-0.918482 0.491614 2.00977e-19)
(-1.0777 0.554729 0)
(-1.21515 0.599509 0)
(-1.32815 0.625668 1.37543e-19)
(-1.4173 0.634957 2.5468e-19)
(-1.48397 0.629322 0)
(-1.53149 0.610862 -2.19324e-19)
(-1.56473 0.581741 2.09173e-19)
(-1.58858 0.544924 -1.98536e-19)
(-1.60741 0.503485 0)